 Entering Gaussian System, Link 0=g09
 Initial command:
 /sw/group/lms/sw/g09_D01/g09/l1.exe "/work/job.575544/Gau-45655.inp" -scrdir="/work/job.575544/"
 Default is to use a total of  28 processors:
                               28 via shared-memory
                                1 via Linda
 Entering Link 1 = /sw/group/lms/sw/g09_D01/g09/l1.exe PID=     45656.
  
 Copyright (c) 1988,1990,1992,1993,1995,1998,2003,2009,2013,
            Gaussian, Inc.  All Rights Reserved.
  
 This is part of the Gaussian(R) 09 program.  It is based on
 the Gaussian(R) 03 system (copyright 2003, Gaussian, Inc.),
 the Gaussian(R) 98 system (copyright 1998, Gaussian, Inc.),
 the Gaussian(R) 94 system (copyright 1995, Gaussian, Inc.),
 the Gaussian 92(TM) system (copyright 1992, Gaussian, Inc.),
 the Gaussian 90(TM) system (copyright 1990, Gaussian, Inc.),
 the Gaussian 88(TM) system (copyright 1988, Gaussian, Inc.),
 the Gaussian 86(TM) system (copyright 1986, Carnegie Mellon
 University), and the Gaussian 82(TM) system (copyright 1983,
 Carnegie Mellon University). Gaussian is a federally registered
 trademark of Gaussian, Inc.
  
 This software contains proprietary and confidential information,
 including trade secrets, belonging to Gaussian, Inc.
  
 This software is provided under written license and may be
 used, copied, transmitted, or stored only in accord with that
 written license.
  
 The following legend is applicable only to US Government
 contracts under FAR:
  
                    RESTRICTED RIGHTS LEGEND
  
 Use, reproduction and disclosure by the US Government is
 subject to restrictions as set forth in subparagraphs (a)
 and (c) of the Commercial Computer Software - Restricted
 Rights clause in FAR 52.227-19.
  
 Gaussian, Inc.
 340 Quinnipiac St., Bldg. 40, Wallingford CT 06492
  
  
 ---------------------------------------------------------------
 Warning -- This program may not be used in any manner that
 competes with the business of Gaussian, Inc. or will provide
 assistance to any competitor of Gaussian, Inc.  The licensee
 of this program is prohibited from giving any competitor of
 Gaussian, Inc. access to this program.  By using this program,
 the user acknowledges that Gaussian, Inc. is engaged in the
 business of creating and licensing software in the field of
 computational chemistry and represents and warrants to the
 licensee that it is not a competitor of Gaussian, Inc. and that
 it will not use this program in any manner prohibited above.
 ---------------------------------------------------------------
  

 Cite this work as:
 Gaussian 09, Revision D.01,
 M. J. Frisch, G. W. Trucks, H. B. Schlegel, G. E. Scuseria, 
 M. A. Robb, J. R. Cheeseman, G. Scalmani, V. Barone, B. Mennucci, 
 G. A. Petersson, H. Nakatsuji, M. Caricato, X. Li, H. P. Hratchian, 
 A. F. Izmaylov, J. Bloino, G. Zheng, J. L. Sonnenberg, M. Hada, 
 M. Ehara, K. Toyota, R. Fukuda, J. Hasegawa, M. Ishida, T. Nakajima, 
 Y. Honda, O. Kitao, H. Nakai, T. Vreven, J. A. Montgomery, Jr., 
 J. E. Peralta, F. Ogliaro, M. Bearpark, J. J. Heyd, E. Brothers, 
 K. N. Kudin, V. N. Staroverov, T. Keith, R. Kobayashi, J. Normand, 
 K. Raghavachari, A. Rendell, J. C. Burant, S. S. Iyengar, J. Tomasi, 
 M. Cossi, N. Rega, J. M. Millam, M. Klene, J. E. Knox, J. B. Cross, 
 V. Bakken, C. Adamo, J. Jaramillo, R. Gomperts, R. E. Stratmann, 
 O. Yazyev, A. J. Austin, R. Cammi, C. Pomelli, J. W. Ochterski, 
 R. L. Martin, K. Morokuma, V. G. Zakrzewski, G. A. Voth, 
 P. Salvador, J. J. Dannenberg, S. Dapprich, A. D. Daniels, 
 O. Farkas, J. B. Foresman, J. V. Ortiz, J. Cioslowski, 
 and D. J. Fox, Gaussian, Inc., Wallingford CT, 2013.
 
 ******************************************
 Gaussian 09:  ES64L-G09RevD.01 24-Apr-2013
                 2-Feb-2018 
 ******************************************
 %chk=Sub-10-Cl-18-tBu.S.1_2a_s_up.Cf1.chk
 ---------------------------------------------------------
 #M06/genecp denfit freq=(hpmodes,noraman,temperature=298)
 ---------------------------------------------------------
 1/10=4,30=1,38=1,112=298000/1,3;
 2/12=2,17=6,18=5,40=1/2;
 3/5=7,11=2,16=1,17=8,25=1,30=1,71=2,74=-54,82=47,140=1/1,2,3;
 4//1;
 5/5=2,38=5,98=1/2;
 8/6=4,10=90,11=11/1;
 11/6=1,8=1,9=11,15=111,16=1/1,2,10;
 10/6=1/2;
 6/7=2,8=2,9=2,10=2,18=1,28=1/1;
 7/8=11,10=1,25=1/1,2,3,16;
 1/10=4,30=1/3;
 99//99;
 ---------------------------------------------------
 Sub-10-Cl-18-tBu/S/1_2a_s_up/Cf1 step 4 (attempt 1)
 ---------------------------------------------------
 Symbolic Z-matrix:
 Charge =  1 Multiplicity = 1
 C                    0    -1.13805   2.33716  -0.72426 
 C                    0    -1.34104   3.5472   -1.36722 
 C                    0    -0.30562   4.48242  -1.35036 
 C                    0     0.85435   4.18462  -0.65957 
 H                    0     1.67661   4.89112  -0.58026 
 C                    0     0.94601   2.93814  -0.02694 
 N                    0     0.00531   2.00969  -0.07611 
 H                    0    -0.41685   5.44213  -1.85036 
 H                    0    -2.28945   3.74899  -1.85839 
 Cl                   0     2.35249   2.62786   0.93146 
 C                    0    -2.21018   1.34121  -0.62492 
 O                    0    -3.4431    1.71916  -0.94647 
 N                    0    -2.04635   0.15235  -0.16787 
 C                    0    -4.26902   0.53894  -0.76313 
 H                    0    -5.19507   0.86235  -0.28098 
 H                    0    -4.49585   0.1434   -1.76086 
 C                    0    -3.39219  -0.40163   0.07651 
 C                    0    -3.72788  -0.44298   1.58894 
 H                    0    -3.44283  -1.42971  -0.31381 
 Pd                   0     0.03489  -0.47737  -0.04663 
 C                    0     4.55538  -0.73961   1.64742 
 C                    0     3.02316  -0.29321  -0.36432 
 C                    0     2.12001  -1.3141    1.76985 
 C                    0     2.02639  -0.87236   0.33556 
 C                    0     3.29235  -0.64372   2.48635 
 H                    0     1.18015  -1.08761   2.30179 
 H                    0     3.0505    0.41126   2.67992 
 C                    0    -0.89432  -2.0736   -2.28405 
 H                    0    -0.38846  -1.23152  -2.78913 
 H                    0    -1.95415  -1.80052  -2.1404 
 C                    0    -0.2359   -2.3765   -0.95382 
 C                    0     1.18833  -2.38095  -0.9694 
 H                    0     1.63049  -1.95332  -1.87138 
 C                    0     1.96352  -3.53673  -0.41715 
 H                    0     3.03323  -3.3201   -0.32471 
 H                    0     1.58411  -3.91752   0.53607 
 H                    0     1.84521  -4.34815  -1.1541 
 O                    0    -0.76884  -3.26968  -3.0282 
 H                    0    -1.19516  -3.17628  -3.89196 
 C                    0    -0.9734   -3.36531  -0.09645 
 H                    0    -2.04837  -3.14972  -0.07771 
 H                    0    -0.85728  -4.37343  -0.52494 
 H                    0    -0.60981  -3.38959   0.939 
 H                    0     4.83042  -1.79937   1.50119 
 C                    0     4.36478  -0.12869   0.28181 
 O                    0     5.25855   0.44859  -0.30827 
 C                    0     2.93041   0.22108  -1.76474 
 H                    0     1.89825   0.23089  -2.13702 
 H                    0     3.32266   1.24575  -1.80772 
 H                    0     3.56229  -0.36296  -2.44985 
 H                    0     5.41675  -0.255     2.12149 
 H                    0     3.4403   -1.11633   3.466 
 H                    0     2.23711  -2.40753   1.82801 
 C                    0    -3.67842   0.95151   2.21309 
 H                    0    -3.9377    0.88854   3.27829 
 H                    0    -2.67207   1.39171   2.15266 
 H                    0    -4.39135   1.65039   1.75318 
 C                    0    -5.12784  -1.03785   1.74967 
 H                    0    -5.19933  -2.03305   1.28627 
 H                    0    -5.36501  -1.15456   2.81548 
 H                    0    -5.91453  -0.4043    1.31722 
 C                    0    -2.73286  -1.34855   2.31414 
 H                    0    -2.96837  -1.37933   3.38641 
 H                    0    -2.77929  -2.38065   1.93856 
 H                    0    -1.69777  -0.98858   2.21149 
 

 GradGradGradGradGradGradGradGradGradGradGradGradGradGradGradGradGradGrad
 Berny optimization.
 Initialization pass.
 Trust Radius=3.00D-01 FncErr=1.00D-07 GrdErr=1.00D-07
 Number of steps in this run=      2 maximum allowed number of steps=      2.
 GradGradGradGradGradGradGradGradGradGradGradGradGradGradGradGradGradGrad

 Stoichiometry    C24H34ClN2O3Pd(1+)
 Framework group  C1[X(C24H34ClN2O3Pd)]
 Deg. of freedom   189
 Full point group                 C1      NOp   1
 Largest Abelian subgroup         C1      NOp   1
 Largest concise Abelian subgroup C1      NOp   1
                         Standard orientation:                         
 ---------------------------------------------------------------------
 Center     Atomic      Atomic             Coordinates (Angstroms)
 Number     Number       Type             X           Y           Z
 ---------------------------------------------------------------------
      1          6           0       -1.138050    2.337159   -0.724263
      2          6           0       -1.341038    3.547204   -1.367221
      3          6           0       -0.305618    4.482421   -1.350355
      4          6           0        0.854349    4.184622   -0.659574
      5          1           0        1.676605    4.891119   -0.580263
      6          6           0        0.946005    2.938138   -0.026938
      7          7           0        0.005308    2.009690   -0.076105
      8          1           0       -0.416851    5.442129   -1.850357
      9          1           0       -2.289453    3.748993   -1.858387
     10         17           0        2.352493    2.627863    0.931462
     11          6           0       -2.210180    1.341210   -0.624923
     12          8           0       -3.443103    1.719164   -0.946468
     13          7           0       -2.046351    0.152354   -0.167865
     14          6           0       -4.269023    0.538940   -0.763130
     15          1           0       -5.195066    0.862348   -0.280984
     16          1           0       -4.495853    0.143400   -1.760858
     17          6           0       -3.392189   -0.401629    0.076514
     18          6           0       -3.727882   -0.442979    1.588937
     19          1           0       -3.442825   -1.429714   -0.313810
     20         46           0        0.034891   -0.477367   -0.046634
     21          6           0        4.555377   -0.739609    1.647422
     22          6           0        3.023162   -0.293210   -0.364315
     23          6           0        2.120012   -1.314098    1.769854
     24          6           0        2.026386   -0.872358    0.335559
     25          6           0        3.292353   -0.643720    2.486353
     26          1           0        1.180152   -1.087612    2.301787
     27          1           0        3.050496    0.411262    2.679924
     28          6           0       -0.894318   -2.073603   -2.284051
     29          1           0       -0.388462   -1.231517   -2.789134
     30          1           0       -1.954150   -1.800523   -2.140403
     31          6           0       -0.235902   -2.376500   -0.953818
     32          6           0        1.188330   -2.380951   -0.969399
     33          1           0        1.630494   -1.953323   -1.871382
     34          6           0        1.963516   -3.536728   -0.417146
     35          1           0        3.033228   -3.320102   -0.324713
     36          1           0        1.584107   -3.917521    0.536073
     37          1           0        1.845206   -4.348153   -1.154101
     38          8           0       -0.768839   -3.269681   -3.028202
     39          1           0       -1.195157   -3.176277   -3.891956
     40          6           0       -0.973403   -3.365308   -0.096448
     41          1           0       -2.048372   -3.149721   -0.077711
     42          1           0       -0.857284   -4.373433   -0.524944
     43          1           0       -0.609813   -3.389593    0.938999
     44          1           0        4.830423   -1.799373    1.501189
     45          6           0        4.364777   -0.128689    0.281814
     46          8           0        5.258546    0.448592   -0.308265
     47          6           0        2.930409    0.221078   -1.764740
     48          1           0        1.898248    0.230891   -2.137025
     49          1           0        3.322658    1.245745   -1.807723
     50          1           0        3.562287   -0.362964   -2.449852
     51          1           0        5.416748   -0.254997    2.121487
     52          1           0        3.440295   -1.116333    3.465999
     53          1           0        2.237107   -2.407527    1.828006
     54          6           0       -3.678424    0.951505    2.213088
     55          1           0       -3.937700    0.888541    3.278291
     56          1           0       -2.672068    1.391705    2.152664
     57          1           0       -4.391349    1.650385    1.753178
     58          6           0       -5.127835   -1.037854    1.749667
     59          1           0       -5.199327   -2.033048    1.286268
     60          1           0       -5.365013   -1.154556    2.815475
     61          1           0       -5.914532   -0.404295    1.317223
     62          6           0       -2.732856   -1.348552    2.314142
     63          1           0       -2.968366   -1.379327    3.386406
     64          1           0       -2.779289   -2.380647    1.938564
     65          1           0       -1.697773   -0.988583    2.211492
 ---------------------------------------------------------------------
 Rotational constants (GHZ):      0.1694456      0.1166013      0.0905175
 General basis read from cards:  (5D, 7F)
 ======================================================================================================
                                       Pseudopotential Parameters
 ======================================================================================================
  Center     Atomic      Valence      Angular      Power
  Number     Number     Electrons     Momentum     of R      Exponent        Coefficient   SO-Coeffient
 ======================================================================================================
    1          6
                                   No pseudopotential on this center.
    2          6
                                   No pseudopotential on this center.
    3          6
                                   No pseudopotential on this center.
    4          6
                                   No pseudopotential on this center.
    5          1
                                   No pseudopotential on this center.
    6          6
                                   No pseudopotential on this center.
    7          7
                                   No pseudopotential on this center.
    8          1
                                   No pseudopotential on this center.
    9          1
                                   No pseudopotential on this center.
   10         17
                                   No pseudopotential on this center.
   11          6
                                   No pseudopotential on this center.
   12          8
                                   No pseudopotential on this center.
   13          7
                                   No pseudopotential on this center.
   14          6
                                   No pseudopotential on this center.
   15          1
                                   No pseudopotential on this center.
   16          1
                                   No pseudopotential on this center.
   17          6
                                   No pseudopotential on this center.
   18          6
                                   No pseudopotential on this center.
   19          1
                                   No pseudopotential on this center.
   20         46           18
                                      F and up 
                                                     0      598.3336444       -0.05631770    0.00000000
                                                     1      162.4298290      -20.12880360    0.00000000
                                                     2       51.5714771     -105.81979230    0.00000000
                                                     2       16.4888260      -42.57333450    0.00000000
                                                     2        5.8287656       -3.61650860    0.00000000
                                      S - F
                                                     0       73.3806304        3.00036510    0.00000000
                                                     1       14.7550438       32.43500930    0.00000000
                                                     2       17.8350204      459.08303830    0.00000000
                                                     2       12.7111477     -868.06290290    0.00000000
                                                     2        9.3292063      514.47260980    0.00000000
                                      P - F
                                                     0       55.6689877        4.95930990    0.00000000
                                                     1       64.2337771       21.17110290    0.00000000
                                                     2       17.6254952      605.05600920    0.00000000
                                                     2       11.9058155     -726.96418460    0.00000000
                                                     2        8.5100832      396.32748830    0.00000000
                                      D - F
                                                     0       49.9994728        3.05087450    0.00000000
                                                     1       39.7477547       22.25065800    0.00000000
                                                     2       11.4321366      674.83576980    0.00000000
                                                     2        9.1790080    -1040.85540480    0.00000000
                                                     2        7.5624429      505.93751470    0.00000000
   21          6
                                   No pseudopotential on this center.
   22          6
                                   No pseudopotential on this center.
   23          6
                                   No pseudopotential on this center.
   24          6
                                   No pseudopotential on this center.
   25          6
                                   No pseudopotential on this center.
   26          1
                                   No pseudopotential on this center.
   27          1
                                   No pseudopotential on this center.
   28          6
                                   No pseudopotential on this center.
   29          1
                                   No pseudopotential on this center.
   30          1
                                   No pseudopotential on this center.
   31          6
                                   No pseudopotential on this center.
   32          6
                                   No pseudopotential on this center.
   33          1
                                   No pseudopotential on this center.
   34          6
                                   No pseudopotential on this center.
   35          1
                                   No pseudopotential on this center.
   36          1
                                   No pseudopotential on this center.
   37          1
                                   No pseudopotential on this center.
   38          8
                                   No pseudopotential on this center.
   39          1
                                   No pseudopotential on this center.
   40          6
                                   No pseudopotential on this center.
   41          1
                                   No pseudopotential on this center.
   42          1
                                   No pseudopotential on this center.
   43          1
                                   No pseudopotential on this center.
   44          1
                                   No pseudopotential on this center.
   45          6
                                   No pseudopotential on this center.
   46          8
                                   No pseudopotential on this center.
   47          6
                                   No pseudopotential on this center.
   48          1
                                   No pseudopotential on this center.
   49          1
                                   No pseudopotential on this center.
   50          1
                                   No pseudopotential on this center.
   51          1
                                   No pseudopotential on this center.
   52          1
                                   No pseudopotential on this center.
   53          1
                                   No pseudopotential on this center.
   54          6
                                   No pseudopotential on this center.
   55          1
                                   No pseudopotential on this center.
   56          1
                                   No pseudopotential on this center.
   57          1
                                   No pseudopotential on this center.
   58          6
                                   No pseudopotential on this center.
   59          1
                                   No pseudopotential on this center.
   60          1
                                   No pseudopotential on this center.
   61          1
                                   No pseudopotential on this center.
   62          6
                                   No pseudopotential on this center.
   63          1
                                   No pseudopotential on this center.
   64          1
                                   No pseudopotential on this center.
   65          1
                                   No pseudopotential on this center.
 ======================================================================================================
 There are   666 symmetry adapted cartesian basis functions of A   symmetry.
 There are   634 symmetry adapted basis functions of A   symmetry.
   634 basis functions,  1169 primitive gaussians,   666 cartesian basis functions
   125 alpha electrons      125 beta electrons
       nuclear repulsion energy      3971.1062980271 Hartrees.
 NAtoms=   65 NActive=   65 NUniq=   65 SFac= 1.00D+00 NAtFMM=   60 NAOKFM=T Big=T
 Integral buffers will be    131072 words long.
 Raffenetti 2 integral format.
 Two-electron integral symmetry is turned on.
 Standard density basis: Auto (5D, 7F)
  2775 Density fitting functions
 There are  2775 symmetry adapted density basis functions of A   symmetry.
 One-electron integrals computed using PRISM.
   1 Symmetry operations used in ECPInt.
 ECPInt:  NShTT=   25878 NPrTT=  135610 LenC2=   23000 LenP2D=   71673.
 LDataN:  DoStor=T MaxTD1= 5 Len=  102
 NBasis=   634 RedAO= T EigKep=  1.72D-06  NBF=   634
 NBsUse=   632 1.00D-06 EigRej=  9.11D-07 NBFU=   632
 Defaulting to unpruned grid for atomic number  46.
 ExpMin= 2.62D-02 ExpMax= 2.52D+04 ExpMxC= 3.78D+03 IAcc=3 IRadAn=         5 AccDes= 0.00D+00
 Harris functional with IExCor= 1009 and IRadAn=       5 diagonalized for initial guess.
 HarFok:  IExCor= 1009 AccDes= 0.00D+00 IRadAn=         5 IDoV= 1 UseB2=F ITyADJ=14
 ICtDFT=  3500011 ScaDFX=  1.000000  1.000000  1.000000  1.000000
 Defaulting to unpruned grid for atomic number  46.
 Defaulting to unpruned grid for atomic number  46.
 Defaulting to unpruned grid for atomic number  46.
 Defaulting to unpruned grid for atomic number  46.
 Defaulting to unpruned grid for atomic number  46.
 Defaulting to unpruned grid for atomic number  46.
 Defaulting to unpruned grid for atomic number  46.
 Defaulting to unpruned grid for atomic number  46.
 Defaulting to unpruned grid for atomic number  46.
 Defaulting to unpruned grid for atomic number  46.
 Defaulting to unpruned grid for atomic number  46.
 Defaulting to unpruned grid for atomic number  46.
 Defaulting to unpruned grid for atomic number  46.
 Defaulting to unpruned grid for atomic number  46.
 Defaulting to unpruned grid for atomic number  46.
 Defaulting to unpruned grid for atomic number  46.
 Defaulting to unpruned grid for atomic number  46.
 Defaulting to unpruned grid for atomic number  46.
 Defaulting to unpruned grid for atomic number  46.
 Defaulting to unpruned grid for atomic number  46.
 Defaulting to unpruned grid for atomic number  46.
 Defaulting to unpruned grid for atomic number  46.
 Defaulting to unpruned grid for atomic number  46.
 Defaulting to unpruned grid for atomic number  46.
 Defaulting to unpruned grid for atomic number  46.
 Defaulting to unpruned grid for atomic number  46.
 Defaulting to unpruned grid for atomic number  46.
 Defaulting to unpruned grid for atomic number  46.
 FoFCou: FMM=F IPFlag=           0 FMFlag=      100000 FMFlg1=        2001
         NFxFlg=           0 DoJE=T BraDBF=F KetDBF=T FulRan=T
         wScrn=  0.000000 ICntrl=     500 IOpCl=  0 I1Cent=   200000004 NGrid=           0
         NMat0=    1 NMatS0=      1 NMatT0=    0 NMatD0=    1 NMtDS0=    0 NMtDT0=    0
 Petite list used in FoFCou.
 Requested convergence on RMS density matrix=1.00D-08 within 128 cycles.
 Requested convergence on MAX density matrix=1.00D-06.
 Requested convergence on             energy=1.00D-06.
 No special actions if energy rises.
 Defaulting to unpruned grid for atomic number  46.
 Defaulting to unpruned grid for atomic number  46.
 Defaulting to unpruned grid for atomic number  46.
 Defaulting to unpruned grid for atomic number  46.
 Defaulting to unpruned grid for atomic number  46.
 Defaulting to unpruned grid for atomic number  46.
 Defaulting to unpruned grid for atomic number  46.
 Defaulting to unpruned grid for atomic number  46.
 Defaulting to unpruned grid for atomic number  46.
 Defaulting to unpruned grid for atomic number  46.
 Defaulting to unpruned grid for atomic number  46.
 Defaulting to unpruned grid for atomic number  46.
 Defaulting to unpruned grid for atomic number  46.
 Defaulting to unpruned grid for atomic number  46.
 Defaulting to unpruned grid for atomic number  46.
 Defaulting to unpruned grid for atomic number  46.
 Defaulting to unpruned grid for atomic number  46.
 Defaulting to unpruned grid for atomic number  46.
 Defaulting to unpruned grid for atomic number  46.
 Defaulting to unpruned grid for atomic number  46.
 Defaulting to unpruned grid for atomic number  46.
 Defaulting to unpruned grid for atomic number  46.
 Defaulting to unpruned grid for atomic number  46.
 Defaulting to unpruned grid for atomic number  46.
 Defaulting to unpruned grid for atomic number  46.
 Defaulting to unpruned grid for atomic number  46.
 Defaulting to unpruned grid for atomic number  46.
 Defaulting to unpruned grid for atomic number  46.
 EnCoef did   100 forward-backward iterations
 EnCoef did   100 forward-backward iterations
 EnCoef did   100 forward-backward iterations
 EnCoef did     2 forward-backward iterations
 Restarting incremental Fock formation.
 SCF Done:  E(RM06) =  -1856.01810581     A.U. after   25 cycles
            NFock= 25  Conv=0.99D-08     -V/T= 2.0508
 DoSCS=F DFT=T ScalE2(SS,OS)=  1.000000  1.000000
 Range of M.O.s used for correlation:     1   632
 NBasis=   634 NAE=   125 NBE=   125 NFC=     0 NFV=     0
 NROrb=    632 NOA=   125 NOB=   125 NVA=   507 NVB=   507

 **** Warning!!: The largest alpha MO coefficient is  0.10522227D+03

   1 Symmetry operations used in ECPInt.
 ECPInt:  NShTT=   25878 NPrTT=  135610 LenC2=   23000 LenP2D=   71673.
 LDataN:  DoStor=T MaxTD1= 6 Len=  172
 Number of processors reduced to   9 by ecpmxn.
 Symmetrizing basis deriv contribution to polar:
 IMax=3 JMax=2 DiffMx= 0.00D+00
 G2DrvN: will do    66 centers at a time, making    1 passes.
 Calling FoFCou, ICntrl=  3107 FMM=T I1Cent=   0 AccDes= 0.00D+00.
 Defaulting to unpruned grid for atomic number  46.
 Defaulting to unpruned grid for atomic number  46.
 Defaulting to unpruned grid for atomic number  46.
 Defaulting to unpruned grid for atomic number  46.
 Defaulting to unpruned grid for atomic number  46.
 Defaulting to unpruned grid for atomic number  46.
 Defaulting to unpruned grid for atomic number  46.
 Defaulting to unpruned grid for atomic number  46.
 Defaulting to unpruned grid for atomic number  46.
 Defaulting to unpruned grid for atomic number  46.
 Defaulting to unpruned grid for atomic number  46.
 Defaulting to unpruned grid for atomic number  46.
 Defaulting to unpruned grid for atomic number  46.
 Defaulting to unpruned grid for atomic number  46.
 Defaulting to unpruned grid for atomic number  46.
 Defaulting to unpruned grid for atomic number  46.
 Defaulting to unpruned grid for atomic number  46.
 Defaulting to unpruned grid for atomic number  46.
 Defaulting to unpruned grid for atomic number  46.
 Defaulting to unpruned grid for atomic number  46.
 Defaulting to unpruned grid for atomic number  46.
 Defaulting to unpruned grid for atomic number  46.
 Defaulting to unpruned grid for atomic number  46.
 Defaulting to unpruned grid for atomic number  46.
 Defaulting to unpruned grid for atomic number  46.
 Defaulting to unpruned grid for atomic number  46.
 Defaulting to unpruned grid for atomic number  46.
 Defaulting to unpruned grid for atomic number  46.
 End of G2Drv F.D. properties file   721 does not exist.
 End of G2Drv F.D. properties file   722 does not exist.
 End of G2Drv F.D. properties file   788 does not exist.
          IDoAtm=11111111111111111111111111111111111111111111111111
          IDoAtm=111111111111111
          Differentiating once with respect to electric field.
                with respect to dipole field.
          Differentiating once with respect to nuclear coordinates.
 Defaulting to unpruned grid for atomic number  46.
 CalDSu exits because no D1Ps are significant.
 Defaulting to unpruned grid for atomic number  46.
 Defaulting to unpruned grid for atomic number  46.
 Defaulting to unpruned grid for atomic number  46.
 Defaulting to unpruned grid for atomic number  46.
 Defaulting to unpruned grid for atomic number  46.
 Defaulting to unpruned grid for atomic number  46.
 Defaulting to unpruned grid for atomic number  46.
 Defaulting to unpruned grid for atomic number  46.
 Defaulting to unpruned grid for atomic number  46.
 Defaulting to unpruned grid for atomic number  46.
 Defaulting to unpruned grid for atomic number  46.
 Defaulting to unpruned grid for atomic number  46.
 Defaulting to unpruned grid for atomic number  46.
 Defaulting to unpruned grid for atomic number  46.
 Defaulting to unpruned grid for atomic number  46.
 Defaulting to unpruned grid for atomic number  46.
 Defaulting to unpruned grid for atomic number  46.
 Defaulting to unpruned grid for atomic number  46.
 Defaulting to unpruned grid for atomic number  46.
 Defaulting to unpruned grid for atomic number  46.
 Defaulting to unpruned grid for atomic number  46.
 Defaulting to unpruned grid for atomic number  46.
 Defaulting to unpruned grid for atomic number  46.
 Defaulting to unpruned grid for atomic number  46.
 Defaulting to unpruned grid for atomic number  46.
 Defaulting to unpruned grid for atomic number  46.
 Defaulting to unpruned grid for atomic number  46.
 Defaulting to unpruned grid for atomic number  46.
          There are   198 degrees of freedom in the 1st order CPHF.  IDoFFX=6 NUNeed=     3.
    198 vectors produced by pass  0 Test12= 6.34D-14 1.00D-09 XBig12= 4.41D+02 8.61D+00.
 AX will form    84 AO Fock derivatives at one time.
    198 vectors produced by pass  1 Test12= 6.34D-14 1.00D-09 XBig12= 1.36D+02 1.59D+00.
    195 vectors produced by pass  2 Test12= 6.34D-14 1.00D-09 XBig12= 2.62D+00 1.44D-01.
    195 vectors produced by pass  3 Test12= 6.34D-14 1.00D-09 XBig12= 1.63D-02 1.36D-02.
    195 vectors produced by pass  4 Test12= 6.34D-14 1.00D-09 XBig12= 8.13D-05 7.54D-04.
    195 vectors produced by pass  5 Test12= 6.34D-14 1.00D-09 XBig12= 2.68D-07 3.71D-05.
    192 vectors produced by pass  6 Test12= 6.34D-14 1.00D-09 XBig12= 6.72D-10 1.19D-06.
    190 vectors produced by pass  7 Test12= 6.34D-14 1.00D-09 XBig12= 3.14D-12 7.60D-08.
    189 vectors produced by pass  8 Test12= 6.34D-14 1.00D-09 XBig12= 2.08D-13 1.99D-08.
    178 vectors produced by pass  9 Test12= 6.34D-14 1.00D-09 XBig12= 9.30D-14 1.32D-08.
    145 vectors produced by pass 10 Test12= 6.34D-14 1.00D-09 XBig12= 1.06D-13 1.18D-08.
    140 vectors produced by pass 11 Test12= 6.34D-14 1.00D-09 XBig12= 1.11D-13 1.28D-08.
    135 vectors produced by pass 12 Test12= 6.34D-14 1.00D-09 XBig12= 5.28D-14 9.23D-09.
    127 vectors produced by pass 13 Test12= 6.34D-14 1.00D-09 XBig12= 6.30D-14 9.75D-09.
    123 vectors produced by pass 14 Test12= 6.34D-14 1.00D-09 XBig12= 5.58D-14 8.81D-09.
     68 vectors produced by pass 15 Test12= 6.34D-14 1.00D-09 XBig12= 4.30D-14 6.89D-09.
     42 vectors produced by pass 16 Test12= 6.34D-14 1.00D-09 XBig12= 3.31D-14 7.23D-09.
     14 vectors produced by pass 17 Test12= 6.34D-14 1.00D-09 XBig12= 7.73D-15 3.11D-09.
     14 vectors produced by pass 18 Test12= 6.34D-14 1.00D-09 XBig12= 3.09D-14 6.60D-09.
     14 vectors produced by pass 19 Test12= 6.34D-14 1.00D-09 XBig12= 3.40D-14 6.00D-09.
     14 vectors produced by pass 20 Test12= 6.34D-14 1.00D-09 XBig12= 4.63D-14 7.92D-09.
     14 vectors produced by pass 21 Test12= 6.34D-14 1.00D-09 XBig12= 1.98D-14 4.81D-09.
     14 vectors produced by pass 22 Test12= 6.34D-14 1.00D-09 XBig12= 2.77D-14 5.77D-09.
     14 vectors produced by pass 23 Test12= 6.34D-14 1.00D-09 XBig12= 2.69D-14 5.58D-09.
     14 vectors produced by pass 24 Test12= 6.34D-14 1.00D-09 XBig12= 1.27D-14 3.68D-09.
     14 vectors produced by pass 25 Test12= 6.34D-14 1.00D-09 XBig12= 2.29D-14 5.35D-09.
     14 vectors produced by pass 26 Test12= 6.34D-14 1.00D-09 XBig12= 1.57D-14 3.73D-09.
     14 vectors produced by pass 27 Test12= 6.34D-14 1.00D-09 XBig12= 2.84D-14 5.32D-09.
     14 vectors produced by pass 28 Test12= 6.34D-14 1.00D-09 XBig12= 2.60D-14 5.25D-09.
     14 vectors produced by pass 29 Test12= 6.34D-14 1.00D-09 XBig12= 3.20D-14 5.42D-09.
     14 vectors produced by pass 30 Test12= 6.34D-14 1.00D-09 XBig12= 2.41D-14 5.29D-09.
     14 vectors produced by pass 31 Test12= 6.34D-14 1.00D-09 XBig12= 2.33D-14 6.71D-09.
     14 vectors produced by pass 32 Test12= 6.34D-14 1.00D-09 XBig12= 1.74D-14 4.33D-09.
     14 vectors produced by pass 33 Test12= 6.34D-14 1.00D-09 XBig12= 2.29D-14 4.55D-09.
     14 vectors produced by pass 34 Test12= 6.34D-14 1.00D-09 XBig12= 1.91D-14 4.62D-09.
     14 vectors produced by pass 35 Test12= 6.34D-14 1.00D-09 XBig12= 2.01D-14 4.34D-09.
     14 vectors produced by pass 36 Test12= 6.34D-14 1.00D-09 XBig12= 1.88D-14 4.85D-09.
     14 vectors produced by pass 37 Test12= 6.34D-14 1.00D-09 XBig12= 1.18D-14 3.76D-09.
     14 vectors produced by pass 38 Test12= 6.34D-14 1.00D-09 XBig12= 1.59D-14 4.11D-09.
     14 vectors produced by pass 39 Test12= 6.34D-14 1.00D-09 XBig12= 1.28D-14 4.08D-09.
     14 vectors produced by pass 40 Test12= 6.34D-14 1.00D-09 XBig12= 1.18D-14 3.46D-09.
     14 vectors produced by pass 41 Test12= 6.34D-14 1.00D-09 XBig12= 1.72D-14 4.13D-09.
     14 vectors produced by pass 42 Test12= 6.34D-14 1.00D-09 XBig12= 1.94D-14 4.21D-09.
     14 vectors produced by pass 43 Test12= 6.34D-14 1.00D-09 XBig12= 2.46D-14 4.94D-09.
     14 vectors produced by pass 44 Test12= 6.34D-14 1.00D-09 XBig12= 1.28D-14 4.21D-09.
     14 vectors produced by pass 45 Test12= 6.34D-14 1.00D-09 XBig12= 2.12D-14 4.41D-09.
     14 vectors produced by pass 46 Test12= 6.34D-14 1.00D-09 XBig12= 1.47D-14 4.99D-09.
     14 vectors produced by pass 47 Test12= 6.34D-14 1.00D-09 XBig12= 1.23D-14 3.70D-09.
     14 vectors produced by pass 48 Test12= 6.34D-14 1.00D-09 XBig12= 1.56D-14 3.79D-09.
     14 vectors produced by pass 49 Test12= 6.34D-14 1.00D-09 XBig12= 1.06D-14 3.54D-09.
     14 vectors produced by pass 50 Test12= 6.34D-14 1.00D-09 XBig12= 1.78D-14 4.53D-09.
     14 vectors produced by pass 51 Test12= 6.34D-14 1.00D-09 XBig12= 1.44D-14 3.99D-09.
     14 vectors produced by pass 52 Test12= 6.34D-14 1.00D-09 XBig12= 1.35D-14 3.45D-09.
     14 vectors produced by pass 53 Test12= 6.34D-14 1.00D-09 XBig12= 1.05D-14 3.44D-09.
     14 vectors produced by pass 54 Test12= 6.34D-14 1.00D-09 XBig12= 1.71D-14 5.26D-09.
     14 vectors produced by pass 55 Test12= 6.34D-14 1.00D-09 XBig12= 9.01D-15 3.15D-09.
     14 vectors produced by pass 56 Test12= 6.34D-14 1.00D-09 XBig12= 1.77D-14 4.50D-09.
     14 vectors produced by pass 57 Test12= 6.34D-14 1.00D-09 XBig12= 1.20D-14 3.22D-09.
     14 vectors produced by pass 58 Test12= 6.34D-14 1.00D-09 XBig12= 1.36D-14 3.67D-09.
     14 vectors produced by pass 59 Test12= 6.34D-14 1.00D-09 XBig12= 8.35D-15 2.84D-09.
     14 vectors produced by pass 60 Test12= 6.34D-14 1.00D-09 XBig12= 7.13D-15 2.47D-09.
     14 vectors produced by pass 61 Test12= 6.34D-14 1.00D-09 XBig12= 7.74D-15 2.80D-09.
     14 vectors produced by pass 62 Test12= 6.34D-14 1.00D-09 XBig12= 1.32D-14 3.64D-09.
     14 vectors produced by pass 63 Test12= 6.34D-14 1.00D-09 XBig12= 1.10D-14 3.75D-09.
     14 vectors produced by pass 64 Test12= 6.34D-14 1.00D-09 XBig12= 7.29D-15 2.64D-09.
     14 vectors produced by pass 65 Test12= 6.34D-14 1.00D-09 XBig12= 6.63D-15 3.02D-09.
     14 vectors produced by pass 66 Test12= 6.34D-14 1.00D-09 XBig12= 7.39D-15 2.68D-09.
     14 vectors produced by pass 67 Test12= 6.34D-14 1.00D-09 XBig12= 5.83D-15 2.46D-09.
     14 vectors produced by pass 68 Test12= 6.34D-14 1.00D-09 XBig12= 5.86D-15 2.62D-09.
     14 vectors produced by pass 69 Test12= 6.34D-14 1.00D-09 XBig12= 9.61D-15 3.04D-09.
     14 vectors produced by pass 70 Test12= 6.34D-14 1.00D-09 XBig12= 6.94D-15 2.86D-09.
     14 vectors produced by pass 71 Test12= 6.34D-14 1.00D-09 XBig12= 6.39D-15 2.84D-09.
     13 vectors produced by pass 72 Test12= 6.34D-14 1.00D-09 XBig12= 5.05D-15 2.30D-09.
     13 vectors produced by pass 73 Test12= 6.34D-14 1.00D-09 XBig12= 1.06D-14 3.18D-09.
     13 vectors produced by pass 74 Test12= 6.34D-14 1.00D-09 XBig12= 5.68D-15 2.19D-09.
     13 vectors produced by pass 75 Test12= 6.34D-14 1.00D-09 XBig12= 1.46D-14 3.72D-09.
     13 vectors produced by pass 76 Test12= 6.34D-14 1.00D-09 XBig12= 7.98D-15 2.80D-09.
     11 vectors produced by pass 77 Test12= 6.34D-14 1.00D-09 XBig12= 5.50D-15 2.21D-09.
     11 vectors produced by pass 78 Test12= 6.34D-14 1.00D-09 XBig12= 5.78D-15 2.29D-09.
     10 vectors produced by pass 79 Test12= 6.34D-14 1.00D-09 XBig12= 3.46D-15 1.68D-09.
     10 vectors produced by pass 80 Test12= 6.34D-14 1.00D-09 XBig12= 7.85D-15 2.39D-09.
     10 vectors produced by pass 81 Test12= 6.34D-14 1.00D-09 XBig12= 7.73D-15 3.15D-09.
     10 vectors produced by pass 82 Test12= 6.34D-14 1.00D-09 XBig12= 8.55D-15 3.65D-09.
     10 vectors produced by pass 83 Test12= 6.34D-14 1.00D-09 XBig12= 6.35D-15 2.42D-09.
     10 vectors produced by pass 84 Test12= 6.34D-14 1.00D-09 XBig12= 1.09D-14 3.36D-09.
     10 vectors produced by pass 85 Test12= 6.34D-14 1.00D-09 XBig12= 6.93D-15 2.45D-09.
     10 vectors produced by pass 86 Test12= 6.34D-14 1.00D-09 XBig12= 8.00D-15 3.15D-09.
     10 vectors produced by pass 87 Test12= 6.34D-14 1.00D-09 XBig12= 6.25D-15 2.26D-09.
     10 vectors produced by pass 88 Test12= 6.34D-14 1.00D-09 XBig12= 6.24D-15 2.78D-09.
     10 vectors produced by pass 89 Test12= 6.34D-14 1.00D-09 XBig12= 7.14D-15 2.56D-09.
     10 vectors produced by pass 90 Test12= 6.34D-14 1.00D-09 XBig12= 5.23D-15 2.06D-09.
     10 vectors produced by pass 91 Test12= 6.34D-14 1.00D-09 XBig12= 6.27D-15 2.70D-09.
     10 vectors produced by pass 92 Test12= 6.34D-14 1.00D-09 XBig12= 5.65D-15 2.26D-09.
     10 vectors produced by pass 93 Test12= 6.34D-14 1.00D-09 XBig12= 6.06D-15 2.48D-09.
     10 vectors produced by pass 94 Test12= 6.34D-14 1.00D-09 XBig12= 7.90D-15 3.33D-09.
      8 vectors produced by pass 95 Test12= 6.34D-14 1.00D-09 XBig12= 3.11D-15 1.75D-09.
      8 vectors produced by pass 96 Test12= 6.34D-14 1.00D-09 XBig12= 6.67D-15 2.58D-09.
      8 vectors produced by pass 97 Test12= 6.34D-14 1.00D-09 XBig12= 6.29D-15 2.70D-09.
      8 vectors produced by pass 98 Test12= 6.34D-14 1.00D-09 XBig12= 6.69D-15 2.43D-09.
      8 vectors produced by pass 99 Test12= 6.34D-14 1.00D-09 XBig12= 7.16D-15 2.48D-09.
      8 vectors produced by pass100 Test12= 6.34D-14 1.00D-09 XBig12= 5.33D-15 2.22D-09.
      8 vectors produced by pass101 Test12= 6.34D-14 1.00D-09 XBig12= 6.44D-15 2.43D-09.
      8 vectors produced by pass102 Test12= 6.34D-14 1.00D-09 XBig12= 5.72D-15 2.45D-09.
      8 vectors produced by pass103 Test12= 6.34D-14 1.00D-09 XBig12= 3.73D-15 2.22D-09.
      8 vectors produced by pass104 Test12= 6.34D-14 1.00D-09 XBig12= 5.24D-15 2.12D-09.
      7 vectors produced by pass105 Test12= 6.34D-14 1.00D-09 XBig12= 2.67D-15 1.53D-09.
      7 vectors produced by pass106 Test12= 6.34D-14 1.00D-09 XBig12= 3.58D-15 2.02D-09.
      6 vectors produced by pass107 Test12= 6.34D-14 1.00D-09 XBig12= 2.54D-15 1.63D-09.
      6 vectors produced by pass108 Test12= 6.34D-14 1.00D-09 XBig12= 3.49D-15 2.25D-09.
      6 vectors produced by pass109 Test12= 6.34D-14 1.00D-09 XBig12= 3.56D-15 2.20D-09.
      6 vectors produced by pass110 Test12= 6.34D-14 1.00D-09 XBig12= 4.07D-15 2.07D-09.
      6 vectors produced by pass111 Test12= 6.34D-14 1.00D-09 XBig12= 3.14D-15 1.67D-09.
      6 vectors produced by pass112 Test12= 6.34D-14 1.00D-09 XBig12= 3.40D-15 1.76D-09.
      6 vectors produced by pass113 Test12= 6.34D-14 1.00D-09 XBig12= 7.10D-15 2.45D-09.
      6 vectors produced by pass114 Test12= 6.34D-14 1.00D-09 XBig12= 2.24D-15 1.98D-09.
      6 vectors produced by pass115 Test12= 6.34D-14 1.00D-09 XBig12= 5.14D-15 2.25D-09.
      6 vectors produced by pass116 Test12= 6.34D-14 1.00D-09 XBig12= 3.90D-15 2.02D-09.
      6 vectors produced by pass117 Test12= 6.34D-14 1.00D-09 XBig12= 5.95D-15 2.37D-09.
      6 vectors produced by pass118 Test12= 6.34D-14 1.00D-09 XBig12= 4.58D-15 2.27D-09.
      6 vectors produced by pass119 Test12= 6.34D-14 1.00D-09 XBig12= 3.22D-15 1.72D-09.
      5 vectors produced by pass120 Test12= 6.34D-14 1.00D-09 XBig12= 3.24D-15 2.02D-09.
      5 vectors produced by pass121 Test12= 6.34D-14 1.00D-09 XBig12= 4.73D-15 2.50D-09.
      5 vectors produced by pass122 Test12= 6.34D-14 1.00D-09 XBig12= 7.37D-15 2.38D-09.
      5 vectors produced by pass123 Test12= 6.34D-14 1.00D-09 XBig12= 2.24D-15 1.64D-09.
      4 vectors produced by pass124 Test12= 6.34D-14 1.00D-09 XBig12= 2.32D-15 1.56D-09.
      4 vectors produced by pass125 Test12= 6.34D-14 1.00D-09 XBig12= 6.06D-15 2.35D-09.
      4 vectors produced by pass126 Test12= 6.34D-14 1.00D-09 XBig12= 7.71D-15 2.54D-09.
      4 vectors produced by pass127 Test12= 6.34D-14 1.00D-09 XBig12= 2.88D-15 1.62D-09.
      4 vectors produced by pass128 Test12= 6.34D-14 1.00D-09 XBig12= 7.59D-15 2.61D-09.
      4 vectors produced by pass129 Test12= 6.34D-14 1.00D-09 XBig12= 3.83D-15 1.92D-09.
      4 vectors produced by pass130 Test12= 6.34D-14 1.00D-09 XBig12= 4.39D-15 2.36D-09.
      4 vectors produced by pass131 Test12= 6.34D-14 1.00D-09 XBig12= 4.51D-15 2.45D-09.
      4 vectors produced by pass132 Test12= 6.34D-14 1.00D-09 XBig12= 6.17D-15 2.58D-09.
      4 vectors produced by pass133 Test12= 6.34D-14 1.00D-09 XBig12= 7.00D-15 2.37D-09.
      4 vectors produced by pass134 Test12= 6.34D-14 1.00D-09 XBig12= 3.67D-15 1.77D-09.
      4 vectors produced by pass135 Test12= 6.34D-14 1.00D-09 XBig12= 3.67D-15 1.90D-09.
      4 vectors produced by pass136 Test12= 6.34D-14 1.00D-09 XBig12= 7.71D-15 2.42D-09.
      4 vectors produced by pass137 Test12= 6.34D-14 1.00D-09 XBig12= 5.57D-15 2.38D-09.
      4 vectors produced by pass138 Test12= 6.34D-14 1.00D-09 XBig12= 2.82D-15 1.57D-09.
      4 vectors produced by pass139 Test12= 6.34D-14 1.00D-09 XBig12= 4.04D-15 2.11D-09.
      4 vectors produced by pass140 Test12= 6.34D-14 1.00D-09 XBig12= 4.50D-15 1.99D-09.
      4 vectors produced by pass141 Test12= 6.34D-14 1.00D-09 XBig12= 4.18D-15 2.00D-09.
      4 vectors produced by pass142 Test12= 6.34D-14 1.00D-09 XBig12= 5.42D-15 2.43D-09.
      4 vectors produced by pass143 Test12= 6.34D-14 1.00D-09 XBig12= 3.86D-15 1.84D-09.
      4 vectors produced by pass144 Test12= 6.34D-14 1.00D-09 XBig12= 3.11D-15 1.82D-09.
      4 vectors produced by pass145 Test12= 6.34D-14 1.00D-09 XBig12= 4.89D-15 2.51D-09.
      4 vectors produced by pass146 Test12= 6.34D-14 1.00D-09 XBig12= 4.25D-15 1.82D-09.
      4 vectors produced by pass147 Test12= 6.34D-14 1.00D-09 XBig12= 2.63D-15 1.40D-09.
      4 vectors produced by pass148 Test12= 6.34D-14 1.00D-09 XBig12= 3.43D-15 1.61D-09.
      4 vectors produced by pass149 Test12= 6.34D-14 1.00D-09 XBig12= 4.39D-15 1.96D-09.
      4 vectors produced by pass150 Test12= 6.34D-14 1.00D-09 XBig12= 3.90D-15 1.92D-09.
      4 vectors produced by pass151 Test12= 6.34D-14 1.00D-09 XBig12= 3.86D-15 2.02D-09.
      4 vectors produced by pass152 Test12= 6.34D-14 1.00D-09 XBig12= 5.58D-15 2.20D-09.
      2 vectors produced by pass153 Test12= 6.34D-14 1.00D-09 XBig12= 1.49D-15 1.14D-09.
 InvSVY:  IOpt=1 It=  1 EMax= 2.84D-14
 Solved reduced A of dimension  4032 with   198 vectors.
 Isotropic polarizability for W=    0.000000      346.15 Bohr**3.
 End of Minotr F.D. properties file   721 does not exist.
 End of Minotr F.D. properties file   722 does not exist.
 End of Minotr F.D. properties file   788 does not exist.

 **********************************************************************

            Population analysis using the SCF density.

 **********************************************************************

 Orbital symmetries:
       Occupied  (A) (A) (A) (A) (A) (A) (A) (A) (A) (A) (A) (A)
                 (A) (A) (A) (A) (A) (A) (A) (A) (A) (A) (A) (A)
                 (A) (A) (A) (A) (A) (A) (A) (A) (A) (A) (A) (A)
                 (A) (A) (A) (A) (A) (A) (A) (A) (A) (A) (A) (A)
                 (A) (A) (A) (A) (A) (A) (A) (A) (A) (A) (A) (A)
                 (A) (A) (A) (A) (A) (A) (A) (A) (A) (A) (A) (A)
                 (A) (A) (A) (A) (A) (A) (A) (A) (A) (A) (A) (A)
                 (A) (A) (A) (A) (A) (A) (A) (A) (A) (A) (A) (A)
                 (A) (A) (A) (A) (A) (A) (A) (A) (A) (A) (A) (A)
                 (A) (A) (A) (A) (A) (A) (A) (A) (A) (A) (A) (A)
                 (A) (A) (A) (A) (A)
       Virtual   (A) (A) (A) (A) (A) (A) (A) (A) (A) (A) (A) (A)
                 (A) (A) (A) (A) (A) (A) (A) (A) (A) (A) (A) (A)
                 (A) (A) (A) (A) (A) (A) (A) (A) (A) (A) (A) (A)
                 (A) (A) (A) (A) (A) (A) (A) (A) (A) (A) (A) (A)
                 (A) (A) (A) (A) (A) (A) (A) (A) (A) (A) (A) (A)
                 (A) (A) (A) (A) (A) (A) (A) (A) (A) (A) (A) (A)
                 (A) (A) (A) (A) (A) (A) (A) (A) (A) (A) (A) (A)
                 (A) (A) (A) (A) (A) (A) (A) (A) (A) (A) (A) (A)
                 (A) (A) (A) (A) (A) (A) (A) (A) (A) (A) (A) (A)
                 (A) (A) (A) (A) (A) (A) (A) (A) (A) (A) (A) (A)
                 (A) (A) (A) (A) (A) (A) (A) (A) (A) (A) (A) (A)
                 (A) (A) (A) (A) (A) (A) (A) (A) (A) (A) (A) (A)
                 (A) (A) (A) (A) (A) (A) (A) (A) (A) (A) (A) (A)
                 (A) (A) (A) (A) (A) (A) (A) (A) (A) (A) (A) (A)
                 (A) (A) (A) (A) (A) (A) (A) (A) (A) (A) (A) (A)
                 (A) (A) (A) (A) (A) (A) (A) (A) (A) (A) (A) (A)
                 (A) (A) (A) (A) (A) (A) (A) (A) (A) (A) (A) (A)
                 (A) (A) (A) (A) (A) (A) (A) (A) (A) (A) (A) (A)
                 (A) (A) (A) (A) (A) (A) (A) (A) (A) (A) (A) (A)
                 (A) (A) (A) (A) (A) (A) (A) (A) (A) (A) (A) (A)
                 (A) (A) (A) (A) (A) (A) (A) (A) (A) (A) (A) (A)
                 (A) (A) (A) (A) (A) (A) (A) (A) (A) (A) (A) (A)
                 (A) (A) (A) (A) (A) (A) (A) (A) (A) (A) (A) (A)
                 (A) (A) (A) (A) (A) (A) (A) (A) (A) (A) (A) (A)
                 (A) (A) (A) (A) (A) (A) (A) (A) (A) (A) (A) (A)
                 (A) (A) (A) (A) (A) (A) (A) (A) (A) (A) (A) (A)
                 (A) (A) (A) (A) (A) (A) (A) (A) (A) (A) (A) (A)
                 (A) (A) (A) (A) (A) (A) (A) (A) (A) (A) (A) (A)
                 (A) (A) (A) (A) (A) (A) (A) (A) (A) (A) (A) (A)
                 (A) (A) (A) (A) (A) (A) (A) (A) (A) (A) (A) (A)
                 (A) (A) (A) (A) (A) (A) (A) (A) (A) (A) (A) (A)
                 (A) (A) (A) (A) (A) (A) (A) (A) (A) (A) (A) (A)
                 (A) (A) (A) (A) (A) (A) (A) (A) (A) (A) (A) (A)
                 (A) (A) (A) (A) (A) (A) (A) (A) (A) (A) (A) (A)
                 (A) (A) (A) (A) (A) (A) (A) (A) (A) (A) (A) (A)
                 (A) (A) (A) (A) (A) (A) (A) (A) (A) (A) (A) (A)
                 (A) (A) (A) (A) (A) (A) (A) (A) (A) (A) (A) (A)
                 (A) (A) (A) (A) (A) (A) (A) (A) (A) (A) (A) (A)
                 (A) (A) (A) (A) (A) (A) (A) (A) (A) (A) (A) (A)
                 (A) (A) (A) (A) (A) (A) (A) (A) (A) (A) (A) (A)
                 (A) (A) (A) (A) (A) (A) (A) (A) (A) (A) (A) (A)
                 (A) (A) (A) (A) (A) (A) (A) (A) (A) (A) (A) (A)
                 (A) (A) (A)
 The electronic state is 1-A.
 Alpha  occ. eigenvalues -- -101.84159 -19.41773 -19.34992 -19.31703 -14.57499
 Alpha  occ. eigenvalues --  -14.55334 -10.49914 -10.48617 -10.45051 -10.43670
 Alpha  occ. eigenvalues --  -10.43588 -10.42474 -10.42289 -10.41786 -10.41190
 Alpha  occ. eigenvalues --  -10.41119 -10.40603 -10.40515 -10.40456 -10.37719
 Alpha  occ. eigenvalues --  -10.37141 -10.36885 -10.36440 -10.36006 -10.35418
 Alpha  occ. eigenvalues --  -10.34592 -10.34428 -10.34093 -10.34080 -10.34018
 Alpha  occ. eigenvalues --   -9.71346  -7.42608  -7.41591  -7.41521  -3.46302
 Alpha  occ. eigenvalues --   -2.20755  -2.20318  -2.17468  -1.27057  -1.16916
 Alpha  occ. eigenvalues --   -1.15546  -1.12929  -1.07373  -1.01056  -0.97472
 Alpha  occ. eigenvalues --   -0.96564  -0.95950  -0.95653  -0.92290  -0.89534
 Alpha  occ. eigenvalues --   -0.87979  -0.87532  -0.84591  -0.82386  -0.81262
 Alpha  occ. eigenvalues --   -0.80493  -0.79845  -0.79759  -0.79290  -0.77695
 Alpha  occ. eigenvalues --   -0.76519  -0.72461  -0.71793  -0.70546  -0.68907
 Alpha  occ. eigenvalues --   -0.67375  -0.66161  -0.65576  -0.65151  -0.64492
 Alpha  occ. eigenvalues --   -0.63680  -0.61475  -0.61007  -0.60386  -0.59774
 Alpha  occ. eigenvalues --   -0.59733  -0.58917  -0.58499  -0.57622  -0.57471
 Alpha  occ. eigenvalues --   -0.57233  -0.56989  -0.56279  -0.55776  -0.54757
 Alpha  occ. eigenvalues --   -0.54433  -0.53842  -0.53764  -0.53372  -0.52926
 Alpha  occ. eigenvalues --   -0.52473  -0.52241  -0.51976  -0.51445  -0.51250
 Alpha  occ. eigenvalues --   -0.51142  -0.50878  -0.50102  -0.49361  -0.49040
 Alpha  occ. eigenvalues --   -0.48812  -0.48576  -0.48012  -0.47688  -0.47395
 Alpha  occ. eigenvalues --   -0.47236  -0.47057  -0.46524  -0.46073  -0.45323
 Alpha  occ. eigenvalues --   -0.44978  -0.44668  -0.44476  -0.44358  -0.43439
 Alpha  occ. eigenvalues --   -0.42641  -0.41899  -0.41212  -0.40887  -0.40030
 Alpha  occ. eigenvalues --   -0.39079  -0.38458  -0.36976  -0.35339  -0.35000
 Alpha virt. eigenvalues --   -0.19541  -0.18158  -0.17010  -0.15968  -0.13300
 Alpha virt. eigenvalues --   -0.11996  -0.11833  -0.11216  -0.10468  -0.10308
 Alpha virt. eigenvalues --   -0.10110  -0.09740  -0.09626  -0.09596  -0.08937
 Alpha virt. eigenvalues --   -0.08766  -0.08605  -0.08099  -0.08031  -0.07618
 Alpha virt. eigenvalues --   -0.07295  -0.07156  -0.06834  -0.06519  -0.05919
 Alpha virt. eigenvalues --   -0.05710  -0.05460  -0.05255  -0.05051  -0.04949
 Alpha virt. eigenvalues --   -0.04611  -0.04286  -0.04116  -0.03813  -0.03624
 Alpha virt. eigenvalues --   -0.03251  -0.02787  -0.02673  -0.02443  -0.02361
 Alpha virt. eigenvalues --   -0.01949  -0.01846  -0.01757  -0.01399  -0.01290
 Alpha virt. eigenvalues --   -0.00963  -0.00648  -0.00425  -0.00192   0.00059
 Alpha virt. eigenvalues --    0.00277   0.00563   0.00703   0.01340   0.01354
 Alpha virt. eigenvalues --    0.01555   0.01861   0.02106   0.02450   0.02569
 Alpha virt. eigenvalues --    0.02877   0.03001   0.03084   0.03360   0.03647
 Alpha virt. eigenvalues --    0.03902   0.04426   0.04628   0.04801   0.04965
 Alpha virt. eigenvalues --    0.05406   0.05502   0.05543   0.05789   0.05899
 Alpha virt. eigenvalues --    0.06067   0.06389   0.06477   0.07166   0.07414
 Alpha virt. eigenvalues --    0.07428   0.07537   0.07799   0.08008   0.08155
 Alpha virt. eigenvalues --    0.08338   0.08387   0.08666   0.08808   0.09127
 Alpha virt. eigenvalues --    0.09148   0.09488   0.09643   0.10065   0.10194
 Alpha virt. eigenvalues --    0.10430   0.10599   0.10776   0.11046   0.11254
 Alpha virt. eigenvalues --    0.11383   0.11572   0.11828   0.11905   0.12201
 Alpha virt. eigenvalues --    0.12394   0.12666   0.12786   0.12934   0.13132
 Alpha virt. eigenvalues --    0.13281   0.13528   0.13761   0.13949   0.14316
 Alpha virt. eigenvalues --    0.14411   0.14515   0.14695   0.14788   0.15114
 Alpha virt. eigenvalues --    0.15315   0.15427   0.15456   0.15969   0.16139
 Alpha virt. eigenvalues --    0.16224   0.16527   0.16829   0.17093   0.17391
 Alpha virt. eigenvalues --    0.17518   0.17808   0.18137   0.18379   0.18579
 Alpha virt. eigenvalues --    0.18929   0.18966   0.19241   0.19612   0.20211
 Alpha virt. eigenvalues --    0.20303   0.20592   0.20949   0.21190   0.21367
 Alpha virt. eigenvalues --    0.21642   0.21819   0.22238   0.22353   0.22589
 Alpha virt. eigenvalues --    0.23229   0.23483   0.23702   0.23971   0.24110
 Alpha virt. eigenvalues --    0.24320   0.24739   0.25030   0.25436   0.25588
 Alpha virt. eigenvalues --    0.25747   0.26246   0.26390   0.26666   0.27431
 Alpha virt. eigenvalues --    0.27656   0.27861   0.27921   0.28448   0.29454
 Alpha virt. eigenvalues --    0.29715   0.30021   0.30359   0.30557   0.31078
 Alpha virt. eigenvalues --    0.31883   0.32053   0.32266   0.32600   0.33227
 Alpha virt. eigenvalues --    0.33842   0.33922   0.34292   0.34938   0.35158
 Alpha virt. eigenvalues --    0.36184   0.36625   0.37528   0.38383   0.39033
 Alpha virt. eigenvalues --    0.40153   0.41535   0.43069   0.44544   0.45655
 Alpha virt. eigenvalues --    0.46882   0.49210   0.50011   0.52629   0.54577
 Alpha virt. eigenvalues --    0.54993   0.55446   0.55692   0.56421   0.57157
 Alpha virt. eigenvalues --    0.58114   0.58520   0.58820   0.59292   0.59692
 Alpha virt. eigenvalues --    0.60063   0.60752   0.60886   0.61539   0.62282
 Alpha virt. eigenvalues --    0.62319   0.62656   0.63008   0.63523   0.63926
 Alpha virt. eigenvalues --    0.64511   0.64603   0.65106   0.65626   0.65916
 Alpha virt. eigenvalues --    0.66250   0.66895   0.67148   0.67499   0.67742
 Alpha virt. eigenvalues --    0.67967   0.68069   0.69226   0.69635   0.70160
 Alpha virt. eigenvalues --    0.70498   0.71294   0.71565   0.72069   0.72837
 Alpha virt. eigenvalues --    0.73164   0.73444   0.73862   0.74128   0.75467
 Alpha virt. eigenvalues --    0.76294   0.76351   0.76535   0.77215   0.78130
 Alpha virt. eigenvalues --    0.78564   0.79198   0.79489   0.80072   0.80829
 Alpha virt. eigenvalues --    0.80905   0.81265   0.81696   0.82304   0.82677
 Alpha virt. eigenvalues --    0.82855   0.83500   0.83770   0.84049   0.84826
 Alpha virt. eigenvalues --    0.85081   0.85938   0.86610   0.87035   0.87744
 Alpha virt. eigenvalues --    0.88216   0.88699   0.89103   0.89783   0.90072
 Alpha virt. eigenvalues --    0.90455   0.91364   0.91768   0.92506   0.93166
 Alpha virt. eigenvalues --    0.93571   0.93959   0.93995   0.94322   0.95296
 Alpha virt. eigenvalues --    0.96003   0.96390   0.96864   0.97505   0.97863
 Alpha virt. eigenvalues --    0.98753   0.98893   0.99618   1.00217   1.00371
 Alpha virt. eigenvalues --    1.01141   1.01380   1.01721   1.02473   1.03070
 Alpha virt. eigenvalues --    1.03585   1.04268   1.04858   1.04973   1.05427
 Alpha virt. eigenvalues --    1.06202   1.06712   1.07408   1.07782   1.08369
 Alpha virt. eigenvalues --    1.08729   1.09238   1.10028   1.11615   1.12359
 Alpha virt. eigenvalues --    1.12944   1.13469   1.13652   1.14029   1.14797
 Alpha virt. eigenvalues --    1.16323   1.17136   1.17597   1.18621   1.20742
 Alpha virt. eigenvalues --    1.20907   1.21347   1.22207   1.22466   1.23677
 Alpha virt. eigenvalues --    1.24571   1.25529   1.26090   1.26522   1.27745
 Alpha virt. eigenvalues --    1.28564   1.29390   1.30126   1.30233   1.30662
 Alpha virt. eigenvalues --    1.31594   1.31768   1.32469   1.34040   1.34712
 Alpha virt. eigenvalues --    1.36708   1.37029   1.37252   1.38151   1.39005
 Alpha virt. eigenvalues --    1.39782   1.40982   1.41513   1.42438   1.43158
 Alpha virt. eigenvalues --    1.44401   1.44793   1.45613   1.47313   1.49092
 Alpha virt. eigenvalues --    1.50274   1.51579   1.52760   1.53337   1.53868
 Alpha virt. eigenvalues --    1.55119   1.55843   1.58578   1.59294   1.59922
 Alpha virt. eigenvalues --    1.60187   1.60739   1.61543   1.63134   1.63815
 Alpha virt. eigenvalues --    1.66118   1.67003   1.67720   1.67911   1.69046
 Alpha virt. eigenvalues --    1.69277   1.70927   1.71321   1.71901   1.73180
 Alpha virt. eigenvalues --    1.73539   1.74200   1.75253   1.75848   1.76289
 Alpha virt. eigenvalues --    1.76558   1.77868   1.78220   1.78563   1.79112
 Alpha virt. eigenvalues --    1.80850   1.81587   1.82430   1.82519   1.82958
 Alpha virt. eigenvalues --    1.83807   1.84255   1.85536   1.86422   1.86801
 Alpha virt. eigenvalues --    1.86972   1.87654   1.88891   1.89969   1.91321
 Alpha virt. eigenvalues --    1.91862   1.92766   1.93999   1.94221   1.94541
 Alpha virt. eigenvalues --    1.95981   1.96653   1.97487   1.98135   1.98873
 Alpha virt. eigenvalues --    1.99825   2.00523   2.01228   2.01769   2.02380
 Alpha virt. eigenvalues --    2.02432   2.03733   2.05052   2.06011   2.06502
 Alpha virt. eigenvalues --    2.06887   2.08120   2.09207   2.10017   2.10560
 Alpha virt. eigenvalues --    2.10924   2.11661   2.12253   2.12502   2.13281
 Alpha virt. eigenvalues --    2.13591   2.13871   2.14413   2.14934   2.16094
 Alpha virt. eigenvalues --    2.17267   2.17430   2.17988   2.18873   2.19670
 Alpha virt. eigenvalues --    2.20890   2.21994   2.22678   2.25311   2.26456
 Alpha virt. eigenvalues --    2.27049   2.27503   2.27607   2.28887   2.30599
 Alpha virt. eigenvalues --    2.32268   2.35784   2.36539   2.37800   2.38306
 Alpha virt. eigenvalues --    2.38853   2.40314   2.41294   2.43136   2.43862
 Alpha virt. eigenvalues --    2.44828   2.46155   2.47909   2.48336   2.49886
 Alpha virt. eigenvalues --    2.51944   2.52568   2.54149   2.54852   2.56210
 Alpha virt. eigenvalues --    2.57516   2.59270   2.60310   2.63483   2.64813
 Alpha virt. eigenvalues --    2.67260   2.69181   2.69834   2.70436   2.70586
 Alpha virt. eigenvalues --    2.72228   2.73768   2.74731   2.76860   2.79219
 Alpha virt. eigenvalues --    2.80263   2.81912   2.85860   2.90293   2.94587
 Alpha virt. eigenvalues --    2.98323   3.00041   3.05379   3.14535   3.15239
 Alpha virt. eigenvalues --    3.27211  21.53911
          Condensed to atoms (all electrons):
 Mulliken charges:
               1
     1  C   -0.019914
     2  C   -0.348334
     3  C   -0.235273
     4  C   -0.094352
     5  H    0.254625
     6  C   -0.292301
     7  N    0.184904
     8  H    0.248555
     9  H    0.257131
    10  Cl   0.339250
    11  C   -0.204862
    12  O   -0.228175
    13  N    0.023167
    14  C   -0.250525
    15  H    0.235076
    16  H    0.236795
    17  C    0.158678
    18  C   -0.922703
    19  H    0.198697
    20  Pd  -0.744672
    21  C   -0.343648
    22  C   -0.118110
    23  C    0.573520
    24  C   -0.374435
    25  C   -0.545215
    26  H    0.238170
    27  H    0.222458
    28  C    0.308355
    29  H    0.205706
    30  H    0.186610
    31  C   -0.501706
    32  C   -0.457815
    33  H    0.253291
    34  C   -0.686802
    35  H    0.254396
    36  H    0.237684
    37  H    0.271372
    38  O   -0.613403
    39  H    0.528266
    40  C   -0.235174
    41  H    0.214466
    42  H    0.280630
    43  H    0.243770
    44  H    0.240557
    45  C   -0.307885
    46  O   -0.345833
    47  C   -0.150174
    48  H    0.214469
    49  H    0.266633
    50  H    0.258341
    51  H    0.254457
    52  H    0.229450
    53  H    0.233412
    54  C   -0.222864
    55  H    0.239588
    56  H    0.230851
    57  H    0.228268
    58  C   -0.272408
    59  H    0.228395
    60  H    0.242019
    61  H    0.216811
    62  C   -0.378060
    63  H    0.234242
    64  H    0.207242
    65  H    0.214338
 Sum of Mulliken charges =   1.00000
 Mulliken charges with hydrogens summed into heavy atoms:
               1
     1  C   -0.019914
     2  C   -0.091203
     3  C    0.013283
     4  C    0.160273
     6  C   -0.292301
     7  N    0.184904
    10  Cl   0.339250
    11  C   -0.204862
    12  O   -0.228175
    13  N    0.023167
    14  C    0.221345
    17  C    0.357374
    18  C   -0.922703
    20  Pd  -0.744672
    21  C    0.151365
    22  C   -0.118110
    23  C    1.045102
    24  C   -0.374435
    25  C   -0.093308
    28  C    0.700670
    31  C   -0.501706
    32  C   -0.204524
    34  C    0.076650
    38  O   -0.085137
    40  C    0.503692
    45  C   -0.307885
    46  O   -0.345833
    47  C    0.589269
    54  C    0.475844
    58  C    0.414818
    62  C    0.277762
 APT charges:
               1
     1  C    0.109596
     2  C   -0.135438
     3  C    0.168023
     4  C   -0.141694
     5  H    0.089471
     6  C    0.488666
     7  N   -0.444769
     8  H    0.071582
     9  H    0.097886
    10  Cl  -0.254560
    11  C    0.963377
    12  O   -0.828301
    13  N   -0.709707
    14  C    0.337893
    15  H    0.031693
    16  H   -0.003945
    17  C    0.241742
    18  C    0.097467
    19  H   -0.016216
    20  Pd   0.170067
    21  C   -0.064474
    22  C   -0.459916
    23  C   -0.109427
    24  C    0.387229
    25  C    0.115830
    26  H    0.009268
    27  H   -0.012721
    28  C    0.526663
    29  H   -0.047824
    30  H   -0.075214
    31  C    0.276409
    32  C    0.196827
    33  H   -0.003823
    34  C   -0.029830
    35  H    0.023890
    36  H    0.037719
    37  H    0.030724
    38  O   -0.695879
    39  H    0.288683
    40  C   -0.093332
    41  H    0.019011
    42  H    0.024103
    43  H    0.032147
    44  H    0.015316
    45  C    1.049771
    46  O   -0.811317
    47  C   -0.008339
    48  H    0.000209
    49  H    0.033965
    50  H    0.025229
    51  H    0.019854
    52  H   -0.026666
    53  H   -0.010472
    54  C   -0.013135
    55  H    0.011248
    56  H   -0.013151
    57  H    0.005365
    58  C    0.011432
    59  H    0.001065
    60  H    0.005230
    61  H    0.000157
    62  C    0.014052
    63  H   -0.005594
    64  H    0.005110
    65  H   -0.018223
 Sum of APT charges =   1.00000
 APT charges with hydrogens summed into heavy atoms:
               1
     1  C    0.109596
     2  C   -0.037552
     3  C    0.239605
     4  C   -0.052223
     6  C    0.488666
     7  N   -0.444769
    10  Cl  -0.254560
    11  C    0.963377
    12  O   -0.828301
    13  N   -0.709707
    14  C    0.365640
    17  C    0.225526
    18  C    0.097467
    20  Pd   0.170067
    21  C   -0.029304
    22  C   -0.459916
    23  C   -0.110630
    24  C    0.387229
    25  C    0.076443
    28  C    0.403625
    31  C    0.276409
    32  C    0.193004
    34  C    0.062502
    38  O   -0.407196
    40  C   -0.018071
    45  C    1.049771
    46  O   -0.811317
    47  C    0.051065
    54  C   -0.009673
    58  C    0.017885
    62  C   -0.004656
 Electronic spatial extent (au):  <R**2>=          13103.8664
 Charge=              1.0000 electrons
 Dipole moment (field-independent basis, Debye):
    X=             -6.2573    Y=              0.4512    Z=             -1.6389  Tot=              6.4841
 Quadrupole moment (field-independent basis, Debye-Ang):
   XX=           -177.7694   YY=           -158.3507   ZZ=           -180.5724
   XY=             -7.6623   XZ=             11.7041   YZ=             -8.4821
 Traceless Quadrupole moment (field-independent basis, Debye-Ang):
   XX=             -5.5386   YY=             13.8802   ZZ=             -8.3416
   XY=             -7.6623   XZ=             11.7041   YZ=             -8.4821
 Octapole moment (field-independent basis, Debye-Ang**2):
  XXX=           -220.7108  YYY=            106.2914  ZZZ=            -45.5322  XYY=             23.3314
  XXY=            -58.9501  XXZ=             41.7468  XZZ=            -15.9426  YZZ=            -26.1027
  YYZ=            -55.2727  XYZ=             -4.4271
 Hexadecapole moment (field-independent basis, Debye-Ang**3):
 XXXX=          -9222.6035 YYYY=          -4703.5472 ZZZZ=          -2228.2714 XXXY=           -178.0854
 XXXZ=            242.0619 YYYX=             12.1157 YYYZ=           -240.5135 ZZZX=            124.0861
 ZZZY=            143.4751 XXYY=          -2355.8814 XXZZ=          -1733.2239 YYZZ=          -1249.9958
 XXYZ=             11.4954 YYXZ=             62.4551 ZZXY=             39.1233
 N-N= 3.971106298027D+03 E-N=-1.222880376311D+04  KE= 1.766296634243D+03
  Exact polarizability: 408.257  20.964 355.854  17.061 -18.512 274.348
 Approx polarizability: 592.024  43.123 529.304  28.957 -31.969 423.042
   1 Symmetry operations used in ECPInt.
 ECPInt:  NShTT=   25878 NPrTT=  135610 LenC2=   23000 LenP2D=   71673.
 LDataN:  DoStor=T MaxTD1= 7 Len=  274
 Calling FoFJK, ICntrl=    100127 FMM=F ISym2X=0 I1Cent= 0 IOpClX= 0 NMat=1 NMatS=1 NMatT=0.
 Defaulting to unpruned grid for atomic number  46.
 Defaulting to unpruned grid for atomic number  46.
 Defaulting to unpruned grid for atomic number  46.
 Defaulting to unpruned grid for atomic number  46.
 Defaulting to unpruned grid for atomic number  46.
 Defaulting to unpruned grid for atomic number  46.
 Defaulting to unpruned grid for atomic number  46.
 Defaulting to unpruned grid for atomic number  46.
 Defaulting to unpruned grid for atomic number  46.
 Defaulting to unpruned grid for atomic number  46.
 Defaulting to unpruned grid for atomic number  46.
 Defaulting to unpruned grid for atomic number  46.
 Defaulting to unpruned grid for atomic number  46.
 Defaulting to unpruned grid for atomic number  46.
 Defaulting to unpruned grid for atomic number  46.
 Defaulting to unpruned grid for atomic number  46.
 Defaulting to unpruned grid for atomic number  46.
 Defaulting to unpruned grid for atomic number  46.
 Defaulting to unpruned grid for atomic number  46.
 Defaulting to unpruned grid for atomic number  46.
 Defaulting to unpruned grid for atomic number  46.
 Defaulting to unpruned grid for atomic number  46.
 Defaulting to unpruned grid for atomic number  46.
 Defaulting to unpruned grid for atomic number  46.
 Defaulting to unpruned grid for atomic number  46.
 Defaulting to unpruned grid for atomic number  46.
 Defaulting to unpruned grid for atomic number  46.
 Defaulting to unpruned grid for atomic number  46.
 Full mass-weighted force constant matrix:
 Low frequencies --- -211.1043   -2.5814   -0.0028   -0.0018   -0.0017    9.1886
 Low frequencies ---   10.2672   26.3908   33.6625
 ******    1 imaginary frequencies (negative Signs) ****** 
 Diagonal vibrational polarizability:
      101.1564119      74.6611705      59.2285346
 Harmonic frequencies (cm**-1), IR intensities (KM/Mole), Raman scattering
 activities (A**4/AMU), depolarization ratios for plane and unpolarized
 incident light, reduced masses (AMU), force constants (mDyne/A),
 and normal coordinates:
                           1         2         3         4         5
                           A         A         A         A         A
       Frequencies ---  -211.0977   26.2134   33.5394   42.1179   48.9551
    Reduced masses ---     7.4315    5.0522    5.0401    4.5962    3.6514
   Force constants ---     0.1951    0.0020    0.0033    0.0048    0.0052
    IR Intensities ---     3.9334    0.1768    1.7217    0.4543    0.2218
 Coord Atom Element:
   1     1     6          0.00265   0.02352  -0.02779   0.00256   0.02352
   2     1     6         -0.02246  -0.00051   0.04491  -0.03123   0.00408
   3     1     6         -0.00585   0.01165   0.05820  -0.00020   0.03728
   1     2     6         -0.00161   0.03959  -0.09465   0.02855   0.02719
   2     2     6         -0.01729   0.01620   0.09131  -0.06353  -0.00357
   3     2     6          0.00420   0.03828   0.16609  -0.06864   0.02093
   1     3     6         -0.00563   0.03657  -0.12513   0.04027   0.04107
   2     3     6         -0.01330   0.01872   0.12381  -0.07507  -0.01912
   3     3     6          0.00508   0.09419   0.19536  -0.09805  -0.02179
   1     4     6         -0.00746   0.01715  -0.07841   0.02408   0.05173
   2     4     6         -0.01433   0.00248   0.09634  -0.04899  -0.02526
   3     4     6          0.00565   0.11944   0.10381  -0.05868  -0.04292
   1     5     1         -0.01139   0.01242  -0.09303   0.03074   0.06663
   2     5     1         -0.01089   0.00300   0.11173  -0.05398  -0.03880
   3     5     1          0.01574   0.16386   0.11774  -0.08314  -0.07710
   1     6     6          0.00219   0.00341  -0.00702  -0.00310   0.04506
   2     6     6         -0.01761  -0.01587   0.04452  -0.01564  -0.01306
   3     6     6          0.00046   0.08512  -0.00838   0.01087  -0.01819
   1     7     7          0.00689   0.00695   0.01295  -0.01280   0.03069
   2     7     7         -0.02913  -0.01686   0.02468  -0.00590  -0.00202
   3     7     7         -0.01179   0.03268  -0.02292   0.03954   0.02068
   1     8     1         -0.00911   0.04770  -0.18295   0.06250   0.04546
   2     8     1         -0.01091   0.03266   0.16554  -0.10234  -0.02775
   3     8     1          0.01043   0.11836   0.28802  -0.15514  -0.03921
   1     9     1         -0.00540   0.05297  -0.12529   0.04249   0.01917
   2     9     1         -0.01949   0.02852   0.09978  -0.07834  -0.00175
   3     9     1          0.01066   0.01769   0.22880  -0.10174   0.03731
   1    10    17         -0.00319  -0.02097   0.06862  -0.02738   0.06464
   2    10    17          0.01735  -0.03922   0.00410   0.00489  -0.00631
   3    10    17          0.01149   0.11188  -0.13093   0.05252  -0.04465
   1    11     6         -0.00158   0.01761  -0.00124   0.00350   0.01093
   2    11     6         -0.01838   0.00177   0.01431  -0.03151   0.01808
   3    11     6         -0.00627  -0.03073   0.02308   0.01592   0.04507
   1    12     8         -0.00078   0.03009  -0.00423   0.00986   0.01936
   2    12     8         -0.00114   0.00978  -0.01759  -0.06838   0.04841
   3    12     8          0.00256  -0.06964  -0.00577  -0.05104   0.04964
   1    13     7         -0.00797  -0.00329   0.01873   0.00596  -0.01035
   2    13     7         -0.02098   0.00125   0.01227  -0.00857   0.00503
   3    13     7         -0.01465  -0.02387   0.01132   0.07440   0.01970
   1    14     6         -0.00942   0.01729   0.03061   0.02639  -0.00525
   2    14     6          0.00517   0.01559  -0.05129  -0.08096   0.06322
   3    14     6         -0.00011  -0.09245  -0.06358  -0.04637   0.01732
   1    15     1         -0.00707   0.00203  -0.00731  -0.00272   0.00773
   2    15     1          0.01012   0.02330  -0.09270  -0.08422   0.06939
   3    15     1          0.00126  -0.12679  -0.10852  -0.09954   0.03740
   1    16     1         -0.01352   0.05110   0.09995   0.08033  -0.02651
   2    16     1          0.00902   0.01073  -0.04836  -0.11917   0.10308
   3    16     1         -0.00099  -0.09836  -0.08092  -0.04370   0.00660
   1    17     6         -0.01234  -0.01662   0.02564   0.00951  -0.02296
   2    17     6         -0.00200   0.01619  -0.02446  -0.03370   0.01048
   3    17     6         -0.00634  -0.05758  -0.03087   0.02511  -0.02071
   1    18     6         -0.00210  -0.05878  -0.03051  -0.06361  -0.05051
   2    18     6         -0.00004   0.03671  -0.02266  -0.00095  -0.06770
   3    18     6         -0.00342  -0.06676  -0.04280   0.00872  -0.02906
   1    19     1         -0.02723  -0.01870   0.07015   0.05949  -0.03176
   2    19     1         -0.00209   0.01315  -0.02835  -0.04772   0.03203
   3    19     1         -0.00431  -0.04768  -0.02595   0.05449  -0.07761
   1    20    46          0.07198   0.00175   0.02030   0.00965  -0.00662
   2    20    46         -0.02425  -0.00239   0.01576   0.01185  -0.00592
   3    20    46         -0.00122   0.00301  -0.00766   0.06352   0.02073
   1    21     6          0.03541   0.06662   0.01528   0.07441   0.01661
   2    21     6         -0.01293  -0.00779  -0.01784  -0.04819   0.08022
   3    21     6          0.00972  -0.12807   0.00303  -0.09353  -0.03237
   1    22     6          0.01162  -0.01549   0.02684   0.00450  -0.01851
   2    22     6          0.08343   0.03245  -0.05517  -0.00116   0.00824
   3    22     6          0.04960  -0.05218  -0.01466  -0.02583  -0.01900
   1    23     6         -0.01715   0.05848   0.00452   0.06648   0.02085
   2    23     6          0.18702   0.02068   0.03734  -0.00490   0.05315
   3    23     6          0.10724  -0.02573   0.01992  -0.00236   0.02133
   1    24     6         -0.01928   0.01247   0.01418   0.02358  -0.00036
   2    24     6          0.38337   0.02146  -0.00918  -0.00434   0.01343
   3    24     6          0.19994  -0.02193   0.00470   0.00040   0.01063
   1    25     6          0.08331   0.10722   0.01550   0.10796   0.03041
   2    25     6          0.04272  -0.02004   0.04293  -0.03140   0.07164
   3    25     6          0.07856  -0.06492  -0.00313  -0.04422  -0.00953
   1    26     1          0.03562   0.08510   0.00741   0.08884   0.02724
   2    26     1          0.19840   0.05102   0.06947   0.01695   0.06692
   3    26     1          0.19261   0.00867   0.01161   0.02894   0.02722
   1    27     1          0.16972   0.13346   0.03653   0.13586   0.02355
   2    27     1          0.05249  -0.02353   0.05568  -0.02756   0.06943
   3    27     1          0.13641  -0.01564  -0.04562  -0.02998  -0.00837
   1    28     6         -0.12765  -0.06635   0.03266   0.04233   0.04642
   2    28     6         -0.02396  -0.10843  -0.00815   0.11909   0.01408
   3    28     6         -0.04918   0.09691   0.00100  -0.02770  -0.01248
   1    29     1         -0.13298  -0.11768   0.07632   0.07061   0.08079
   2    29     1          0.00689  -0.10660  -0.04099   0.13268   0.00257
   3    29     1         -0.00326   0.04849  -0.00932   0.02320   0.00326
   1    30     1         -0.13259  -0.06933   0.03927   0.03863   0.04808
   2    30     1         -0.05218  -0.14161   0.03583   0.12293   0.03906
   3    30     1         -0.04730   0.13592  -0.03466  -0.06488  -0.04648
   1    31     6         -0.10826   0.00678  -0.00956  -0.01709  -0.00308
   2    31     6         -0.13544  -0.04385   0.00359   0.06428  -0.00042
   3    31     6         -0.09723   0.07519   0.02451  -0.00997   0.00850
   1    32     6         -0.21104   0.00490  -0.00973  -0.01520  -0.00324
   2    32     6         -0.23570  -0.00596  -0.03734   0.01488  -0.02382
   3    32     6         -0.22985  -0.00020   0.05634   0.03175   0.05687
   1    33     1         -0.13551  -0.05108   0.02107   0.01900   0.03282
   2    33     1         -0.02828   0.00252  -0.07982  -0.00224  -0.05244
   3    33     1         -0.08946  -0.02399   0.05122   0.04060   0.06124
   1    34     6         -0.04208   0.06894  -0.05462  -0.07575  -0.04203
   2    34     6          0.04184   0.02177  -0.04034  -0.02057  -0.02118
   3    34     6          0.01657  -0.03317   0.11216   0.04168   0.11531
   1    35     1         -0.08417   0.06591  -0.05023  -0.06738  -0.04077
   2    35     1          0.22130   0.05675  -0.06805  -0.06785  -0.03821
   3    35     1          0.06376  -0.08219   0.12586   0.05700   0.14111
   1    36     1         -0.07107   0.12476  -0.08512  -0.10569  -0.07928
   2    36     1          0.07498   0.00626   0.00378  -0.00386   0.01638
   3    36     1          0.01793  -0.01769   0.11770   0.03685   0.11579
   1    37     1          0.16352   0.06112  -0.06193  -0.09925  -0.03242
   2    37     1         -0.06865   0.01964  -0.06286  -0.01491  -0.04285
   3    37     1          0.09957  -0.02992   0.13824   0.03932   0.13785
   1    38     8         -0.08348  -0.05908   0.00601   0.06464   0.04408
   2    38     8          0.00827  -0.12735  -0.03376   0.14568   0.01132
   3    38     8         -0.09551   0.12855   0.03724  -0.06642  -0.00868
   1    39     1         -0.17363  -0.10500   0.03548   0.09799   0.07240
   2    39     1         -0.01582  -0.17117  -0.03971   0.17910   0.02049
   3    39     1         -0.05400   0.14649   0.02204  -0.07930  -0.02167
   1    40     6         -0.10419   0.08335  -0.05952  -0.08522  -0.04972
   2    40     6         -0.06749  -0.03847   0.04382   0.07534   0.01140
   3    40     6         -0.01697   0.14847   0.02791  -0.05654  -0.01902
   1    41     1         -0.09353   0.07775  -0.05303  -0.07475  -0.04721
   2    41     1         -0.02324  -0.07407   0.08078   0.13331   0.02440
   3    41     1          0.03830   0.20078   0.00211  -0.07282  -0.06936
   1    42     1         -0.15843   0.09320  -0.08372  -0.12726  -0.04157
   2    42     1         -0.09464  -0.04979   0.03238   0.08138   0.00866
   3    42     1          0.03675   0.17808   0.04864  -0.08276  -0.01030
   1    43     1         -0.05071   0.13946  -0.08166  -0.10740  -0.09792
   2    43     1         -0.01950   0.00894   0.05234   0.02805   0.01218
   3    43     1         -0.03441   0.12987   0.03592  -0.04959  -0.00196
   1    44     1         -0.01598   0.04559  -0.00630   0.04397   0.03017
   2    44     1         -0.02551  -0.00610  -0.02962  -0.05196   0.08251
   3    44     1          0.00550  -0.17861   0.04796  -0.12265  -0.02314
   1    45     6          0.03558   0.00425   0.03216   0.02945  -0.01601
   2    45     6         -0.01136   0.04206  -0.07008  -0.01946   0.05754
   3    45     6          0.00320  -0.09697  -0.02299  -0.07396  -0.03773
   1    46     8          0.04217  -0.03207   0.04959   0.00998  -0.04149
   2    46     8         -0.02818   0.08596  -0.12288  -0.01425   0.07886
   3    46     8         -0.00149  -0.10905  -0.04845  -0.09842  -0.05534
   1    47     6         -0.01153  -0.06674   0.03129  -0.03673  -0.04488
   2    47     6          0.06005   0.04684  -0.08974   0.01337  -0.02795
   3    47     6          0.03680  -0.04356  -0.02734  -0.01748  -0.03080
   1    48     1         -0.02446  -0.07484   0.02915  -0.04507  -0.04901
   2    48     1          0.07405   0.01260  -0.08509   0.00514  -0.05507
   3    48     1          0.06859  -0.02239  -0.02185   0.00644  -0.01924
   1    49     1          0.01962  -0.10541   0.03809  -0.04991  -0.06275
   2    49     1          0.04644   0.06237  -0.09297   0.01885  -0.02222
   3    49     1         -0.01233  -0.03487  -0.04961  -0.01192  -0.06028
   1    50     1         -0.05959  -0.05859   0.02396  -0.04428  -0.04240
   2    50     1          0.00822   0.08128  -0.11094   0.03139  -0.03328
   3    50     1          0.03790  -0.06504  -0.01564  -0.03959  -0.02407
   1    51     1          0.07310   0.09436   0.02484   0.10364   0.01717
   2    51     1         -0.04941  -0.03359  -0.01693  -0.07497   0.09958
[...]
 0491,0.00000007,0.00000980,0.00000832,0.00001137,0.00000069,0.00000206
 ,-0.00000613,0.00000173,-0.00003458,-0.00003479,-0.00000432,0.00001140
 ,-0.00000316,-0.00000858,0.00001245,0.00001443,-0.00000265,-0.00000584
 ,0.00000425,0.00001460,0.00002425,0.00001745,0.00000984,0.00001028,-0.
 00002760,-0.00000559,-0.00001433,0.00001807,-0.00002814,-0.00033517,0.
 00007600,0.00005883,0.00004603,-0.00004197,0.00002608,0.00000779,-0.00
 000099,0.00000063,0.00000342,0.00000508,0.00000775,0.00000634,-0.00000
 549,-0.00001749,0.00000594,-0.00001555,-0.00000946,0.00000352,0.000002
 47,0.00000607,0.00002096,-0.00001027,0.00000427,0.00000803,0.00000723,
 -0.00009078,-0.00017674,-0.00045348,0.00020721,-0.00001070,0.00028986,
 0.00017723,-0.00000176,-0.00009981,-0.00013334,0.00007704,0.00000801,0
 .00000027,-0.00000089,-0.00000272,-0.00002290,0.00000173,-0.00000147,0
 .00001318,0.00000348,-0.00000356,0.00000636,0.00000096,0.00000322,-0.0
 0000096,-0.00000428,0.00000052,0.00000158,0.00000108,0.00000116,-0.000
 00335,-0.00000112,-0.00000119,-0.00000009,0.00000144,0.00000048,-0.000
 00058,0.00000319,0.00000158,0.00000031,-0.00000165,-0.00001212,-0.0005
 7142,0.00087607,0.00108427,0.00052698,-0.00042018,-0.00025199,-0.00005
 260,-0.00016904,0.00002364,-0.00013366,0.00027061,-0.00025494,-0.00093
 107,0.00008154,-0.00041691,0.00003039,-0.00002828,-0.00015996,0.000047
 12,0.00040047,-0.00014903,-0.00016089,-0.00016292,-0.00006674,-0.00173
 445,-0.04596591,0.00447505,-0.00101602,0.04796508,-0.00003617,-0.00002
 798,-0.00000168,0.00005562,0.00005214,-0.00000399,-0.00003765,-0.00002
 670,-0.00000428,0.00005398,-0.00002300,0.00003587,0.00000032,0.,0.0000
 0114,-0.00006658,0.00006531,-0.00008875,0.00003046,0.00003510,0.000023
 47,0.00000398,0.00000314,-0.00000151,-0.00000277,-0.00002221,0.0000056
 5,0.00005223,-0.00001039,0.00003801,-0.00003616,-0.00028971,0.00005616
 ,0.00005218,0.00048750,-0.00013673,0.00003305,-0.00004568,0.00021583,0
 .00060280,-0.00053330,-0.00059949,-0.00005458,0.00003293,0.00006838,-0
 .00016155,0.00020402,-0.00013359,-0.00288385,0.00221835,0.00001239,0.0
 0342505,0.00003934,-0.01620876,0.00003986,-0.00007064,0.00033005,-0.00
 005939,0.00001546,-0.00010009,0.00001210,-0.00000174,0.00001011,0.0001
 1762,-0.00000432,0.00007456,0.00007705,0.00002258,0.00000399,-0.000126
 50,-0.00000225,-0.00004979,-0.00001262,-0.00002287,0.00001400,-0.00000
 693,0.00000760,-0.00002362,0.00000194,0.00000673,-0.00000864,-0.000066
 74,0.00006610,0.00004638,0.00000983,-0.00000444,-0.00000654,0.00003599
 ,-0.00000526,0.00001218,-0.00004929,-0.00006225,0.00003448,-0.00001194
 ,0.00008096,0.00002718,0.00001086,-0.00000531,0.00000098,0.00000342,-0
 .00000067,-0.00001244,0.00000939,0.00000238,0.00000063,-0.00000856,0.0
 0000180,-0.00000340,-0.00000052,-0.00000068,0.00000455,0.00002651,-0.0
 0006167,-0.00005719,-0.00000317,0.00001262,0.00001966,-0.00010775,-0.0
 0003418,-0.00010239,0.00010663,0.00005726,0.00005927,0.00006318,0.0000
 0223,-0.00003126,-0.00003776,0.00004696,-0.00000475,-0.00000313,0.0000
 0022,0.00000066,-0.00011735,-0.00000403,-0.00006835,0.00006885,0.00001
 534,0.00000975,-0.00000612,0.00000174,-0.00000196,0.00000331,-0.000000
 43,0.00000443,-0.00000259,0.00000264,0.00000098,-0.00000036,-0.0000021
 2,-0.00000143,0.00000127,0.00000195,0.00000344,0.00001645,-0.00000050,
 0.00001374,0.00000661,-0.00000805,-0.00000360,0.00067355,-0.00129627,0
 .00072452,-0.00002604,0.00043066,0.00049519,-0.00009146,0.00012505,-0.
 00007984,-0.00011483,-0.00011584,0.00034347,0.00133466,-0.00032395,0.0
 0059225,-0.00006074,0.00007200,-0.00006953,-0.00064230,-0.00008049,0.0
 0022716,-0.00002974,-0.00000794,0.00040300,0.05818710,0.00540508,-0.30
 165642,-0.06183876,-0.00752968,0.32525775,0.00000456,0.00002772,0.0000
 1229,-0.00000710,-0.00001290,-0.00001363,0.00000467,0.00000260,0.00000
 285,0.00000087,0.00000106,-0.00001694,0.00000054,0.00000001,-0.0000016
 8,-0.00000763,-0.00000899,-0.00001061,-0.00002848,0.00005429,0.0000620
 6,-0.00000126,-0.00000050,0.00000118,0.00000080,0.00000219,0.00000106,
 -0.00000272,0.00000513,0.00001214,-0.00015058,0.00011147,-0.00002476,0
 .00002844,-0.00016092,-0.00002031,-0.00013392,-0.00005171,0.00027945,-
 0.00006024,-0.00005747,0.00012385,0.00002653,0.00005135,0.00002782,0.0
 0002169,-0.00000880,-0.00000085,0.00064740,-0.00031097,0.00072461,0.00
 011642,0.01884526,0.00869307,0.00017701,-0.00021674,-0.00026517,0.0001
 8865,-0.00001013,-0.00012907,0.00000886,-0.00000137,0.00000178,0.00009
 116,0.00001631,0.00006271,0.00011513,0.00000565,-0.00002589,-0.0001136
 8,-0.00004776,-0.00008134,-0.00001655,-0.00001942,0.00000509,0.0000006
 6,-0.00007496,-0.00001262,0.00001348,0.00002078,-0.00000378,0.00007912
 ,0.00011747,0.00001412,0.00000088,0.00001892,-0.00006658,-0.00000897,-
 0.00001570,0.00002409,-0.00026635,-0.00062790,0.00002056,0.00007077,0.
 00007571,-0.00004139,0.00004236,0.00001111,-0.00000754,0.00000463,-0.0
 0000226,0.00003442,0.00002117,0.00001232,-0.00001983,-0.00003995,0.000
 00859,-0.00002629,-0.00001199,0.00000476,0.00000812,-0.00000245,0.0000
 1409,-0.00003779,0.00001375,0.00002095,0.00001367,0.00002266,0.0002638
 3,0.00045693,0.00024932,0.00040843,0.00071727,0.00011134,0.00003945,-0
 .00018411,-0.00074505,0.00027638,0.00006824,-0.00000700,0.00000235,0.0
 0000283,-0.00011100,-0.00000743,-0.00004422,0.00006237,0.00002286,-0.0
 0000022,0.00000788,-0.00000303,-0.00000225,0.00000133,-0.00000833,0.00
 000359,0.00000374,0.00000528,0.00000152,-0.00000608,-0.00000111,-0.000
 00250,0.00000126,0.00000053,0.00000345,0.00000810,-0.00000319,0.000006
 59,-0.00005404,0.00002103,0.00000781,-0.00288527,0.00223542,-0.0024224
 0,-0.00009377,-0.00027326,-0.00016723,0.00018916,0.00014004,-0.0000851
 3,0.00034803,0.00141829,0.00032648,0.00122550,0.00092867,0.00057517,-0
 .00051262,-0.00018338,-0.00044662,-0.00011026,-0.00001371,0.00015428,0
 .00027324,-0.00024568,0.00003728,-0.04729602,-0.01320125,-0.00495231,-
 0.00049962,0.00696052,0.00208058,0.04887719,0.00000936,0.00002265,-0.0
 0005425,-0.00001697,0.00000216,0.00000046,0.00001519,0.00001971,0.0000
 0008,-0.00001196,0.00001385,-0.00002559,0.00000209,-0.00000034,-0.0000
 0452,0.00003750,-0.00003029,0.00001938,-0.00003739,0.00005236,0.000066
 81,0.00000067,-0.00000044,-0.00000245,0.00000370,0.00000101,-0.0000141
 5,-0.00002896,0.00001094,-0.00000787,0.00008285,0.00003417,-0.00011469
 ,-0.00003261,0.00028871,-0.00006698,-0.00014338,0.00008517,0.00037960,
 0.00017216,0.00010855,0.00015737,-0.00009664,0.00001663,-0.00009736,0.
 00000393,-0.00003087,0.00006234,-0.00035966,-0.00004166,-0.00129993,-0
 .00197507,-0.01762381,-0.00734270,-0.00004153,0.00022553,0.00078816,0.
 00021880,-0.00004220,0.00001228,0.00000626,0.00000003,0.00000155,0.000
 06381,0.00001731,0.00004651,0.00005608,0.00000793,-0.00002123,-0.00006
 145,-0.00002412,-0.00005392,-0.00000936,-0.00001826,-0.00000096,-0.000
 01854,-0.00003640,-0.00000188,0.00000713,0.00001386,-0.00000007,-0.000
 02474,0.00003616,0.00003659,0.00002283,0.00001257,-0.00003363,-0.00000
 408,-0.00001792,0.00003499,-0.00010673,-0.00047048,0.00007019,0.000074
 23,0.00005823,-0.00005612,0.00002415,0.00000986,-0.00000422,-0.0000052
 1,0.00000492,0.00001805,0.00001351,0.00000801,-0.00000808,-0.00002536,
 0.00000468,-0.00001496,-0.00001175,0.00000535,0.00000536,0.00002371,0.
 00002735,-0.00002539,-0.00000465,0.00000847,0.00001723,0.00059348,-0.0
 0059931,-0.00140599,0.00051231,-0.00038219,-0.00061393,0.00026622,-0.0
 0003135,-0.00017640,0.00000323,0.00009992,0.00019236,-0.00000499,0.000
 00245,0.00000225,-0.00009146,-0.00001904,-0.00002690,0.00005060,0.0000
 2621,-0.00000592,0.00000962,0.00000065,-0.00000480,0.00000031,-0.00000
 847,0.00000322,0.00000509,0.00000566,-0.00000025,-0.00000431,0.0000008
 6,-0.00000291,0.00000238,0.00000020,0.00000209,0.00000344,-0.00000060,
 0.00000385,-0.00002682,0.00001359,0.00000170,0.00352642,-0.00135737,0.
 00326537,-0.00006163,0.00030992,-0.00000604,-0.00011585,0.00035781,0.0
 0008722,0.00011336,-0.00121344,-0.00057719,-0.00142380,0.00080110,-0.0
 0026603,0.00045903,0.00053194,0.00007441,0.00015022,-0.00009604,0.0000
 3089,-0.00004550,0.00027054,0.00020533,-0.01266200,-0.27940037,-0.0865
 9811,-0.00012374,0.00216557,0.00129241,0.01026977,0.30363434,-0.000001
 47,0.00000802,0.00001192,-0.00001179,-0.00002053,0.00000071,0.00000682
 ,0.00000761,-0.00000096,-0.00001067,0.00000031,-0.00000540,-0.00000016
 ,0.00000046,0.00000051,0.00002552,-0.00000439,0.00001548,-0.00000554,-
 0.00003278,0.00000482,-0.00000095,-0.00000101,0.00000047,-0.00000020,0
 .00000538,0.00000024,-0.00000957,-0.00000113,-0.00000621,-0.00006398,0
 .00013805,0.00000580,0.00006689,-0.00021110,0.00003960,0.00006784,-0.0
 0030494,-0.00004103,-0.00011219,-0.00002842,0.00018211,0.00003536,-0.0
 0000162,0.00002804,0.00001653,-0.00002055,0.00001198,0.00029146,0.0009
 1561,0.00112427,0.00140900,0.01494886,0.00451881,-0.00018033,0.0000096
 8,-0.00038463,0.00003274,0.00011712,0.00000557,-0.00000525,0.00000244,
 -0.00000631,-0.00008522,-0.00000110,-0.00005179,-0.00003163,-0.0000242
 0,-0.00000817,0.00010213,0.00002393,0.00003742,0.00000764,0.00001220,-
 0.00000800,-0.00000243,-0.00002195,0.00000084,0.00000436,0.00000436,0.
 00000071,0.00002595,-0.00006361,-0.00006485,-0.00001325,0.00000301,0.0
 0001954,-0.00001098,0.00000868,-0.00002718,-0.00010701,0.00019263,-0.0
 0006778,0.00000618,-0.00009644,0.00004344,-0.00003207,0.00000035,-0.00
 000462,-0.00001005,-0.00000057,0.00001560,-0.00001042,-0.00000359,-0.0
 0000043,0.00001162,-0.00001010,0.00001191,0.00000181,0.00000068,-0.000
 00331,-0.00001690,0.00004385,0.00005825,-0.00000241,-0.00001235,-0.000
 01697,0.00112334,-0.00060213,-0.00066349,0.00030513,-0.00106395,-0.001
 51061,-0.00009439,-0.00000450,-0.00000403,-0.00001707,-0.00011791,0.00
 014535,0.00000052,0.00000166,0.00000204,0.00009431,0.00000673,0.000040
 39,-0.00005650,-0.00001519,0.00000161,-0.00000004,-0.00000489,0.000001
 82,-0.00000287,0.00000239,-0.00000341,0.00000085,-0.00000246,-0.000000
 56,0.00000093,0.00000217,0.00000191,-0.00000136,-0.00000216,-0.0000022
 0,-0.00000760,-0.00000520,-0.00000947,-0.00001730,0.00001166,0.0000132
 7,-0.00184771,0.00145583,-0.00121805,-0.00022988,0.00015745,0.00030204
 ,-0.00004052,-0.00011274,-0.00022950,-0.00021708,0.00078699,0.00073007
 ,0.00064223,0.00006832,0.00036549,-0.00012365,-0.00009016,0.00018887,-
 0.00002214,-0.00021420,-0.00010338,0.00025284,0.00012293,-0.00009614,-
 0.00462083,-0.08697975,-0.07831229,-0.00254942,-0.02864875,-0.00872349
 ,0.00559865,0.09555692,0.08364962,-0.00003035,0.00009203,0.00003954,-0
 .00000278,-0.00001882,-0.00001175,0.00000922,-0.00000377,-0.00000402,0
 .00001318,0.00000118,-0.00000402,0.00000037,0.00000112,0.00000119,0.00
 000666,0.00000781,-0.00001463,0.00001808,-0.00000695,0.00005343,-0.000
 00207,0.00000022,0.00000262,-0.00000473,-0.00000532,0.00000675,0.00001
 474,0.00000646,0.00001385,-0.00008563,0.00066827,-0.00011643,0.0009571
 0,-0.00024217,-0.00005385,0.00072315,-0.00097295,0.00213216,-0.0003355
 7,-0.00027728,-0.00001000,0.00004387,-0.00013003,0.00010034,-0.0000171
 3,0.00005737,-0.00005549,-0.00098844,-0.00033211,0.00100787,-0.0185539
 6,-0.00828685,0.00280979,0.00001544,0.00000935,0.00001281,0.00022470,0
 .00021730,-0.00118854,-0.00002301,-0.00002344,-0.00002544,-0.00005241,
 0.00000603,-0.00002786,0.00003315,-0.00007793,-0.00029383,0.00029057,-
 0.00006758,-0.00010105,-0.00003065,0.00006841,0.00004931,-0.00108216,-
 0.00001039,0.00015433,0.00001172,0.00000080,0.00000199,-0.00009934,-0.
 00001583,-0.00012951,0.00001616,0.00000664,0.00001250,0.00003841,-0.00
 001467,-0.00000308,0.00003868,0.00015083,0.00008551,0.00015038,0.00003
 522,0.00013366,-0.00000043,0.00000074,0.00000249,-0.00001350,0.0000057
 0,-0.00000933,-0.00000521,-0.00000468,-0.00000811,-0.00000018,-0.00001
 285,-0.00000583,-0.00000013,-0.00000524,-0.00000035,0.00006453,0.00003
 708,0.00008157,-0.00001623,-0.00000576,0.00000277,-0.00001642,0.000159
 59,-0.00006022,0.00006561,0.00009517,-0.00003988,-0.00002211,-0.000049
 78,0.00005157,0.00017806,-0.00011685,-0.00004568,0.00000596,0.00000311
 ,0.00000374,0.00010912,0.00005979,0.00000470,-0.00006963,-0.00004064,0
 .00002704,-0.00000408,-0.00001834,0.00001961,-0.00000305,0.00000015,-0
 .00000852,0.00000042,-0.00000401,0.00000139,-0.00000496,0.00000371,0.0
 0000281,-0.00001296,-0.00000449,0.00000789,-0.00000669,-0.00000623,-0.
 00000529,-0.00002359,0.00003291,0.00001309,0.00067984,-0.00132416,0.00
 004188,-0.00012520,0.00005451,-0.00001884,0.00035107,0.00066139,0.0000
 3260,0.00027708,0.00009880,-0.00008176,-0.00229685,0.00429212,-0.00293
 254,0.00025956,-0.00010433,-0.00002656,0.00051414,0.00010102,-0.000020
 90,-0.00139140,-0.00060997,0.00001450,-0.27505700,-0.08125264,0.023727
 90,-0.00518770,-0.00182775,-0.00049251,0.00011192,0.00077266,0.0004421
 6,0.30034267,0.00003606,-0.00002874,0.00002665,0.00002074,0.00002079,0
 .00001216,-0.00001747,-0.00002225,-0.00000215,0.00003184,-0.00000420,0
 .00004039,-0.00000315,0.00000598,0.00000369,-0.00011145,0.00001810,-0.
 00006018,0.00007590,0.00000452,-0.00012186,0.00000187,0.00000133,0.000
 00079,-0.00000216,-0.00000562,0.00000666,0.00005896,-0.00001072,0.0000
 2053,0.00009218,-0.00017755,0.00012558,0.00001727,0.00001840,0.0000259
 7,0.00033247,-0.00027530,0.00041261,0.00005833,-0.00008139,-0.00018694
 ,0.00003112,0.00003021,-0.00002303,-0.00001766,0.00003435,-0.00003545,
 -0.00067446,0.00062054,-0.00028587,0.01764013,0.00619184,-0.00364517,-
 0.00011655,-0.00000279,0.00005585,-0.00043413,0.00001056,-0.00020027,-
 0.00002367,-0.00003234,-0.00003115,-0.00004028,-0.00002252,0.00000888,
 0.00006184,-0.00008892,-0.00010217,0.00009479,0.00005095,-0.00008225,-
 0.00003313,0.00005563,0.00009766,0.00014416,0.00026958,0.00003331,-0.0
 0001383,-0.00002680,-0.00000536,-0.00009091,-0.00005992,-0.00004809,0.
 00000096,0.00000041,0.00003514,0.00002515,0.00000648,-0.00000282,0.000
 16180,0.00038238,0.00002145,0.00006683,0.00001738,0.00004802,-0.000006
 10,0.00000527,0.00001456,0.00000014,0.00002555,-0.00002059,-0.00000979
 ,-0.00000778,0.00000269,0.00001785,-0.00002737,0.00000324,-0.00000313,
 -0.00000373,0.00000326,0.00004407,0.00001044,0.00005530,-0.00001086,-0
 .00001272,-0.00000108,-0.00026618,0.00027350,-0.00006254,0.00007423,0.
 00010114,0.00013450,-0.00007360,-0.00003580,0.00019574,0.00012977,-0.0
 0044378,0.00005334,0.00001066,0.00000101,-0.00000055,0.00012170,0.0000
 5734,-0.00001527,-0.00007469,-0.00005161,0.00003570,-0.00001962,-0.000
 01413,0.00002290,0.00000044,0.00000751,-0.00000601,-0.00000435,-0.0000
 0965,0.00000518,-0.00000013,-0.00000191,0.00000573,-0.00001807,-0.0000
 0181,0.00001092,0.00000698,0.00000085,0.00000044,0.00005526,-0.0000362
 2,-0.00001620,0.00054300,0.00136065,-0.00018717,0.00003263,-0.00005792
 ,-0.00008842,0.00011670,-0.00071871,0.00018703,-0.00023216,0.00023319,
 0.00002867,0.00196207,-0.00209278,0.00171327,0.00016197,0.00017964,0.0
 0025137,-0.00007343,-0.00025176,-0.00002501,0.00111113,0.00068979,0.00
 019760,-0.08289433,-0.07637753,0.00771677,0.00060969,-0.00097045,-0.00
 018308,-0.02685173,-0.00787198,0.00410811,0.08816633,0.07914140,0.0000
 0248,0.00005647,0.00001811,-0.00004954,-0.00005243,0.00000050,0.000037
 22,0.00002332,0.00000725,-0.00006983,0.00002712,-0.00003414,0.00000069
 ,-0.00000368,0.00000211,0.00012525,-0.00006257,0.00012733,-0.00002345,
 -0.00006677,-0.00005173,-0.00000501,-0.00000315,0.00000107,-0.00000128
 ,0.00001309,0.00000134,-0.00006472,0.00001000,-0.00005537,-0.00029017,
 0.00069814,-0.00017428,0.00054445,-0.00023106,0.00000738,0.00037106,0.
 00054775,-0.00177151,-0.00014765,0.00001887,0.00021191,0.00002487,-0.0
 0006654,0.00006171,0.00003841,-0.00001449,0.00002548,-0.00041934,-0.00
 082479,0.00067100,-0.01480928,-0.00636702,0.00094373,0.00011882,0.0000
 3559,0.00020429,0.00002626,-0.00001910,-0.00049170,-0.00002509,0.00001
 051,-0.00000891,-0.00031761,0.00002761,-0.00022060,-0.00028907,-0.0000
 2647,0.00008431,0.00045120,-0.00013843,0.00023967,0.00003942,0.0000572
 4,-0.00007622,-0.00009370,0.00002274,0.00010138,-0.00001055,-0.0000230
 3,0.00002227,-0.00003532,-0.00001758,-0.00008913,0.00000157,0.00000606
 ,0.00000250,0.00001278,-0.00000603,-0.00000464,0.00009096,-0.00009295,
 -0.00009963,0.00008301,-0.00021870,-0.00002898,-0.00001022,0.00004234,
 0.00000701,-0.00000336,0.00001092,0.00003436,-0.00001987,-0.00000353,-
 0.00000350,0.00001099,0.00001057,-0.00000715,-0.00001278,0.00000684,-0
 .00002061,0.00002931,0.00006595,0.00008485,-0.00000887,-0.00000764,-0.
 00000838,-0.00002025,0.00012959,0.00014731,0.00019569,0.00026456,0.000
 27517,-0.00004519,0.00003798,0.00005218,-0.00010274,-0.00004056,0.0001
 1255,0.00000499,-0.00000529,-0.00000781,0.00026858,0.00001608,0.000200
 03,-0.00014847,-0.00003539,-0.00003816,0.00001258,0.00000119,0.0000143
 6,-0.00001150,0.00000199,-0.00001944,0.00000317,-0.00000635,-0.0000008
 6,-0.00000782,-0.00000142,-0.00000054,0.00000627,-0.00000098,-0.000017
 10,-0.00004464,0.00000184,-0.00003377,0.00000571,0.00001166,-0.0000143
 6,0.00060831,-0.00062882,0.00008177,0.00015650,0.00009909,-0.00005214,
 0.00011676,0.00008495,0.00028540,-0.00001475,-0.00011383,-0.00018550,-
 0.00153676,0.00224213,-0.00146769,0.00024605,0.00014977,-0.00005669,-0
 .00019148,0.00002100,0.00029667,-0.00107390,-0.00012351,0.00047724,0.0
 2410652,0.00761381,-0.04722592,0.02851639,0.01061790,-0.00098779,-0.01
 105254,-0.00349958,-0.00000627,-0.02529954,-0.01028299,0.04845825\\0.0
 0000060,-0.00000005,-0.00000162,0.00000121,-0.00000040,-0.00000202,0.0
 0000034,-0.00000040,-0.00000153,0.00000068,-0.00000031,-0.00000040,0.0
 0000006,0.00000003,0.00000013,0.00000012,0.00000013,0.00000011,-0.0000
 0011,0.00000002,-0.00000047,0.00000120,-0.00000081,-0.00000183,0.00000
 107,-0.00000090,-0.00000288,-0.00000123,0.00000076,0.00000097,0.000001
 28,-0.00000031,-0.00000176,0.00000020,-0.00000038,-0.00000382,-0.00000
 054,-0.00000076,-0.00000049,0.00000057,-0.00000064,-0.00000302,0.00000
 044,-0.00000031,-0.00000439,0.00000130,-0.00000094,-0.00000379,0.00000
 009,-0.00000057,-0.00000282,-0.00000125,-0.00000050,-0.00000324,0.0000
 0057,0.00000033,-0.00000291,0.00000026,0.00000020,0.00000034,-0.000000
 97,0.00000123,0.00000413,0.00000077,0.00000017,0.00000244,-0.00000116,
 0.00000093,0.00000241,-0.00000035,0.00000090,0.00000260,-0.00000172,0.
 00000132,0.00000341,-0.00000186,0.00000066,0.00000167,-0.00000206,0.00
 000056,0.00000253,0.00000160,-0.00000080,0.00000031,0.00000287,-0.0000
 0076,0.00000044,0.00000141,-0.00000017,-0.00000060,0.00000189,-0.00000
 129,0.00000025,0.00000108,-0.00000142,0.00000051,0.00000248,-0.0000000
 8,0.00000214,-0.00000043,0.00000060,0.00000423,0.00000061,0.00000003,0
 .00000325,0.00000018,0.00000056,0.00000231,0.00000135,-0.00000034,0.00
 000295,0.00000477,-0.00000048,0.00000006,0.00000199,-0.00000146,0.0000
 0054,0.00000024,-0.00000050,0.00000030,0.00000061,-0.00000106,-0.00000
 016,0.00000103,-0.00000014,0.00000089,-0.00000034,0.00000090,0.0000004
 6,-0.00000103,0.00000099,0.00000457,-0.00000002,0.00000008,0.00000355,
 0.00000013,0.00000002,0.00000441,0.00000187,-0.00000032,0.00000238,0.0
 0000144,-0.00000047,0.00000174,0.00000110,-0.00000004,0.00000249,0.000
 00203,-0.00000021,0.00000338,-0.00000201,0.00000086,0.00000471,-0.0000
 0278,0.00000132,0.00000315,-0.00000125,0.00000009,0.00000273,-0.000002
 35,0.00000051,-0.00000319,-0.00000268,0.00000067,-0.00000335,-0.000001
 60,0.00000053,-0.00000236,-0.00000126,-0.00000005,-0.00000382,-0.00000
 113,-0.00000007,-0.00000386,-0.00000078,0.00000023,-0.00000351,-0.0000
 0212,0.00000030,-0.00000385,-0.00000106,-0.00000010,-0.00000458,-0.000
 00218,0.00000021,-0.00000130,-0.00000253,0.00000072,-0.00000226,-0.000
 00125,0.00000035,-0.00000165,-0.00000136,0.00000085,-0.00000103\\\@


 UNLESS WE CHANGE DIRECTIONS, WE WILL WIND UP WHERE WE ARE HEADED.
     -- CONFUCIUS
 Job cpu time:       2 days 23 hours 33 minutes 46.2 seconds.
 File lengths (MBytes):  RWF=   7438 Int=      0 D2E=      0 Chk=     25 Scr=      1
 Normal termination of Gaussian 09 at Fri Feb  2 15:35:33 2018.
