 Entering Gaussian System, Link 0=g09
 Initial command:
 /sw/group/lms/sw/g09_D01/g09/l1.exe "/work/job.575551/Gau-9751.inp" -scrdir="/work/job.575551/"
 Default is to use a total of  28 processors:
                               28 via shared-memory
                                1 via Linda
 Entering Link 1 = /sw/group/lms/sw/g09_D01/g09/l1.exe PID=      9752.
  
 Copyright (c) 1988,1990,1992,1993,1995,1998,2003,2009,2013,
            Gaussian, Inc.  All Rights Reserved.
  
 This is part of the Gaussian(R) 09 program.  It is based on
 the Gaussian(R) 03 system (copyright 2003, Gaussian, Inc.),
 the Gaussian(R) 98 system (copyright 1998, Gaussian, Inc.),
 the Gaussian(R) 94 system (copyright 1995, Gaussian, Inc.),
 the Gaussian 92(TM) system (copyright 1992, Gaussian, Inc.),
 the Gaussian 90(TM) system (copyright 1990, Gaussian, Inc.),
 the Gaussian 88(TM) system (copyright 1988, Gaussian, Inc.),
 the Gaussian 86(TM) system (copyright 1986, Carnegie Mellon
 University), and the Gaussian 82(TM) system (copyright 1983,
 Carnegie Mellon University). Gaussian is a federally registered
 trademark of Gaussian, Inc.
  
 This software contains proprietary and confidential information,
 including trade secrets, belonging to Gaussian, Inc.
  
 This software is provided under written license and may be
 used, copied, transmitted, or stored only in accord with that
 written license.
  
 The following legend is applicable only to US Government
 contracts under FAR:
  
                    RESTRICTED RIGHTS LEGEND
  
 Use, reproduction and disclosure by the US Government is
 subject to restrictions as set forth in subparagraphs (a)
 and (c) of the Commercial Computer Software - Restricted
 Rights clause in FAR 52.227-19.
  
 Gaussian, Inc.
 340 Quinnipiac St., Bldg. 40, Wallingford CT 06492
  
  
 ---------------------------------------------------------------
 Warning -- This program may not be used in any manner that
 competes with the business of Gaussian, Inc. or will provide
 assistance to any competitor of Gaussian, Inc.  The licensee
 of this program is prohibited from giving any competitor of
 Gaussian, Inc. access to this program.  By using this program,
 the user acknowledges that Gaussian, Inc. is engaged in the
 business of creating and licensing software in the field of
 computational chemistry and represents and warrants to the
 licensee that it is not a competitor of Gaussian, Inc. and that
 it will not use this program in any manner prohibited above.
 ---------------------------------------------------------------
  

 Cite this work as:
 Gaussian 09, Revision D.01,
 M. J. Frisch, G. W. Trucks, H. B. Schlegel, G. E. Scuseria, 
 M. A. Robb, J. R. Cheeseman, G. Scalmani, V. Barone, B. Mennucci, 
 G. A. Petersson, H. Nakatsuji, M. Caricato, X. Li, H. P. Hratchian, 
 A. F. Izmaylov, J. Bloino, G. Zheng, J. L. Sonnenberg, M. Hada, 
 M. Ehara, K. Toyota, R. Fukuda, J. Hasegawa, M. Ishida, T. Nakajima, 
 Y. Honda, O. Kitao, H. Nakai, T. Vreven, J. A. Montgomery, Jr., 
 J. E. Peralta, F. Ogliaro, M. Bearpark, J. J. Heyd, E. Brothers, 
 K. N. Kudin, V. N. Staroverov, T. Keith, R. Kobayashi, J. Normand, 
 K. Raghavachari, A. Rendell, J. C. Burant, S. S. Iyengar, J. Tomasi, 
 M. Cossi, N. Rega, J. M. Millam, M. Klene, J. E. Knox, J. B. Cross, 
 V. Bakken, C. Adamo, J. Jaramillo, R. Gomperts, R. E. Stratmann, 
 O. Yazyev, A. J. Austin, R. Cammi, C. Pomelli, J. W. Ochterski, 
 R. L. Martin, K. Morokuma, V. G. Zakrzewski, G. A. Voth, 
 P. Salvador, J. J. Dannenberg, S. Dapprich, A. D. Daniels, 
 O. Farkas, J. B. Foresman, J. V. Ortiz, J. Cioslowski, 
 and D. J. Fox, Gaussian, Inc., Wallingford CT, 2013.
 
 ******************************************
 Gaussian 09:  ES64L-G09RevD.01 24-Apr-2013
                 2-Feb-2018 
 ******************************************
 %chk=Sub-10-Cl-18-tBu.S.2_2a_s_up_a.Cf1.chk
 ---------------------------------------------------------
 #M06/genecp denfit freq=(hpmodes,noraman,temperature=298)
 ---------------------------------------------------------
 1/10=4,30=1,38=1,112=298000/1,3;
 2/12=2,17=6,18=5,40=1/2;
 3/5=7,11=2,16=1,17=8,25=1,30=1,71=2,74=-54,82=47,140=1/1,2,3;
 4//1;
 5/5=2,38=5,98=1/2;
 8/6=4,10=90,11=11/1;
 11/6=1,8=1,9=11,15=111,16=1/1,2,10;
 10/6=1/2;
 6/7=2,8=2,9=2,10=2,18=1,28=1/1;
 7/8=11,10=1,25=1/1,2,3,16;
 1/10=4,30=1/3;
 99//99;
 -----------------------------------------------------
 Sub-10-Cl-18-tBu/S/2_2a_s_up_a/Cf1 step 4 (attempt 1)
 -----------------------------------------------------
 Symbolic Z-matrix:
 Charge =  1 Multiplicity = 1
 C                    0    -1.71677   2.17573   0.61787 
 C                    0    -2.52652   3.16836   1.14379 
 C                    0    -3.90287   3.07427   0.94016 
 C                    0    -4.39707   2.02767   0.1827 
 H                    0    -5.45396   1.93292  -0.05168 
 C                    0    -3.49122   1.07897  -0.30267 
 N                    0    -2.18908   1.1005   -0.06003 
 H                    0    -4.57694   3.82788   1.3414 
 H                    0    -2.0786    3.99923   1.68233 
 Cl                   0    -4.1097   -0.15901  -1.34213 
 C                    0    -0.25472   2.28833   0.66306 
 O                    0     0.26934   3.33082   1.29907 
 N                    0     0.53368   1.47813   0.05758 
 C                    0     1.7081    3.1368    1.23177 
 H                    0     2.15692   4.10527   0.99604 
 H                    0     2.03817   2.81994   2.22821 
 C                    0     1.89067   2.05703   0.15252 
 C                    0     2.39677   2.58234  -1.21092 
 H                    0     2.58908   1.2784    0.49403 
 Pd                   0    -0.48523  -0.52352  -0.0864 
 C                    0     4.12917  -2.07031  -0.46064 
 C                    0     3.06124  -2.91708  -1.12955 
 C                    0     1.8014   -2.07756  -1.33001 
 C                    0     1.31031  -1.57314  -0.00029 
 C                    0     2.16009  -1.22852   0.99744 
 H                    0     3.42076  -3.3049   -2.09117 
 H                    0     2.02312  -1.21925  -1.98455 
 C                    0    -2.57056  -2.20112   1.21622 
 H                    0    -3.44124  -1.68184   0.80005 
 H                    0    -2.23164  -1.65527   2.10559 
 C                    0    -1.48855  -2.37757   0.18531 
 C                    0    -0.19896  -2.83956   0.59993 
 H                    0     4.53152  -1.33037  -1.1737 
 C                    0    -1.94041  -2.95112  -1.14102 
 H                    0    -2.89016  -2.5014   -1.45581 
 H                    0    -1.19424  -2.75784  -1.93208 
 C                    0     3.63101  -1.28871   0.73279 
 O                    0     4.40196  -0.67947   1.45568 
 H                    0     4.99589  -2.65768  -0.1305 
 H                    0     2.81817  -3.79233  -0.50422 
 H                    0     1.02594  -2.65252  -1.85279 
 C                    0     0.06546  -3.26176   2.00963 
 H                    0    -0.51712  -4.1834    2.16894 
 H                    0     1.12214  -3.49756   2.17269 
 H                    0    -0.25521  -2.54242   2.76898 
 O                    0    -2.08323  -4.34276  -0.90819 
 H                    0    -2.54524  -4.76052  -1.64881 
 H                    0    -2.91614  -3.19428   1.5484 
 H                    0     0.26811  -3.50553  -0.13102 
 C                    0     1.78552  -0.68441   2.33876 
 H                    0     2.27505   0.28527   2.50117 
 H                    0     0.70344  -0.5493    2.44767 
 H                    0     2.15307  -1.33139   3.14771 
 C                    0     1.49489   3.68551  -1.7625 
 H                    0     1.87835   4.02936  -2.73251 
 H                    0     0.46857   3.32717  -1.92755 
 H                    0     1.45231   4.56757  -1.10834 
 C                    0     3.8195    3.10931  -1.01451 
 H                    0     4.48014   2.33549  -0.59478 
 H                    0     4.24171   3.41872  -1.98013 
 H                    0     3.86515   3.98622  -0.3537 
 C                    0     2.44405   1.42961  -2.20984 
 H                    0     2.81613   1.78308  -3.18097 
 H                    0     3.13114   0.64236  -1.86368 
 H                    0     1.45118   0.98626  -2.37004 
 

 GradGradGradGradGradGradGradGradGradGradGradGradGradGradGradGradGradGrad
 Berny optimization.
 Initialization pass.
 Trust Radius=3.00D-01 FncErr=1.00D-07 GrdErr=1.00D-07
 Number of steps in this run=      2 maximum allowed number of steps=      2.
 GradGradGradGradGradGradGradGradGradGradGradGradGradGradGradGradGradGrad

 Stoichiometry    C24H34ClN2O3Pd(1+)
 Framework group  C1[X(C24H34ClN2O3Pd)]
 Deg. of freedom   189
 Full point group                 C1      NOp   1
 Largest Abelian subgroup         C1      NOp   1
 Largest concise Abelian subgroup C1      NOp   1
                         Standard orientation:                         
 ---------------------------------------------------------------------
 Center     Atomic      Atomic             Coordinates (Angstroms)
 Number     Number       Type             X           Y           Z
 ---------------------------------------------------------------------
      1          6           0       -1.716772    2.175734    0.617874
      2          6           0       -2.526521    3.168354    1.143787
      3          6           0       -3.902874    3.074271    0.940162
      4          6           0       -4.397066    2.027670    0.182702
      5          1           0       -5.453955    1.932921   -0.051679
      6          6           0       -3.491219    1.078972   -0.302671
      7          7           0       -2.189080    1.100502   -0.060028
      8          1           0       -4.576943    3.827877    1.341395
      9          1           0       -2.078604    3.999234    1.682331
     10         17           0       -4.109701   -0.159015   -1.342131
     11          6           0       -0.254720    2.288327    0.663055
     12          8           0        0.269338    3.330825    1.299071
     13          7           0        0.533682    1.478134    0.057576
     14          6           0        1.708098    3.136798    1.231766
     15          1           0        2.156917    4.105268    0.996035
     16          1           0        2.038173    2.819935    2.228212
     17          6           0        1.890666    2.057028    0.152519
     18          6           0        2.396765    2.582342   -1.210924
     19          1           0        2.589077    1.278403    0.494025
     20         46           0       -0.485229   -0.523516   -0.086395
     21          6           0        4.129172   -2.070313   -0.460640
     22          6           0        3.061241   -2.917080   -1.129546
     23          6           0        1.801401   -2.077556   -1.330010
     24          6           0        1.310307   -1.573137   -0.000294
     25          6           0        2.160089   -1.228522    0.997440
     26          1           0        3.420765   -3.304895   -2.091170
     27          1           0        2.023117   -1.219246   -1.984548
     28          6           0       -2.570564   -2.201124    1.216219
     29          1           0       -3.441242   -1.681842    0.800051
     30          1           0       -2.231644   -1.655267    2.105587
     31          6           0       -1.488545   -2.377566    0.185306
     32          6           0       -0.198955   -2.839559    0.599933
     33          1           0        4.531521   -1.330373   -1.173705
     34          6           0       -1.940405   -2.951117   -1.141023
     35          1           0       -2.890163   -2.501404   -1.455813
     36          1           0       -1.194239   -2.757843   -1.932081
     37          6           0        3.631014   -1.288709    0.732794
     38          8           0        4.401955   -0.679469    1.455680
     39          1           0        4.995889   -2.657681   -0.130503
     40          1           0        2.818172   -3.792332   -0.504221
     41          1           0        1.025940   -2.652520   -1.852787
     42          6           0        0.065461   -3.261760    2.009625
     43          1           0       -0.517119   -4.183402    2.168943
     44          1           0        1.122142   -3.497561    2.172691
     45          1           0       -0.255211   -2.542422    2.768980
     46          8           0       -2.083229   -4.342756   -0.908190
     47          1           0       -2.545234   -4.760517   -1.648812
     48          1           0       -2.916137   -3.194285    1.548398
     49          1           0        0.268115   -3.505533   -0.131019
     50          6           0        1.785519   -0.684414    2.338765
     51          1           0        2.275050    0.285273    2.501168
     52          1           0        0.703436   -0.549302    2.447665
     53          1           0        2.153072   -1.331385    3.147713
     54          6           0        1.494886    3.685506   -1.762500
     55          1           0        1.878348    4.029359   -2.732512
     56          1           0        0.468566    3.327169   -1.927547
     57          1           0        1.452309    4.567574   -1.108341
     58          6           0        3.819502    3.109314   -1.014512
     59          1           0        4.480143    2.335495   -0.594775
     60          1           0        4.241706    3.418717   -1.980127
     61          1           0        3.865149    3.986218   -0.353696
     62          6           0        2.444046    1.429610   -2.209838
     63          1           0        2.816131    1.783080   -3.180969
     64          1           0        3.131135    0.642361   -1.863679
     65          1           0        1.451178    0.986255   -2.370041
 ---------------------------------------------------------------------
 Rotational constants (GHZ):      0.1576992      0.1308657      0.0874803
 General basis read from cards:  (5D, 7F)
 ======================================================================================================
                                       Pseudopotential Parameters
 ======================================================================================================
  Center     Atomic      Valence      Angular      Power
  Number     Number     Electrons     Momentum     of R      Exponent        Coefficient   SO-Coeffient
 ======================================================================================================
    1          6
                                   No pseudopotential on this center.
    2          6
                                   No pseudopotential on this center.
    3          6
                                   No pseudopotential on this center.
    4          6
                                   No pseudopotential on this center.
    5          1
                                   No pseudopotential on this center.
    6          6
                                   No pseudopotential on this center.
    7          7
                                   No pseudopotential on this center.
    8          1
                                   No pseudopotential on this center.
    9          1
                                   No pseudopotential on this center.
   10         17
                                   No pseudopotential on this center.
   11          6
                                   No pseudopotential on this center.
   12          8
                                   No pseudopotential on this center.
   13          7
                                   No pseudopotential on this center.
   14          6
                                   No pseudopotential on this center.
   15          1
                                   No pseudopotential on this center.
   16          1
                                   No pseudopotential on this center.
   17          6
                                   No pseudopotential on this center.
   18          6
                                   No pseudopotential on this center.
   19          1
                                   No pseudopotential on this center.
   20         46           18
                                      F and up 
                                                     0      598.3336444       -0.05631770    0.00000000
                                                     1      162.4298290      -20.12880360    0.00000000
                                                     2       51.5714771     -105.81979230    0.00000000
                                                     2       16.4888260      -42.57333450    0.00000000
                                                     2        5.8287656       -3.61650860    0.00000000
                                      S - F
                                                     0       73.3806304        3.00036510    0.00000000
                                                     1       14.7550438       32.43500930    0.00000000
                                                     2       17.8350204      459.08303830    0.00000000
                                                     2       12.7111477     -868.06290290    0.00000000
                                                     2        9.3292063      514.47260980    0.00000000
                                      P - F
                                                     0       55.6689877        4.95930990    0.00000000
                                                     1       64.2337771       21.17110290    0.00000000
                                                     2       17.6254952      605.05600920    0.00000000
                                                     2       11.9058155     -726.96418460    0.00000000
                                                     2        8.5100832      396.32748830    0.00000000
                                      D - F
                                                     0       49.9994728        3.05087450    0.00000000
                                                     1       39.7477547       22.25065800    0.00000000
                                                     2       11.4321366      674.83576980    0.00000000
                                                     2        9.1790080    -1040.85540480    0.00000000
                                                     2        7.5624429      505.93751470    0.00000000
   21          6
                                   No pseudopotential on this center.
   22          6
                                   No pseudopotential on this center.
   23          6
                                   No pseudopotential on this center.
   24          6
                                   No pseudopotential on this center.
   25          6
                                   No pseudopotential on this center.
   26          1
                                   No pseudopotential on this center.
   27          1
                                   No pseudopotential on this center.
   28          6
                                   No pseudopotential on this center.
   29          1
                                   No pseudopotential on this center.
   30          1
                                   No pseudopotential on this center.
   31          6
                                   No pseudopotential on this center.
   32          6
                                   No pseudopotential on this center.
   33          1
                                   No pseudopotential on this center.
   34          6
                                   No pseudopotential on this center.
   35          1
                                   No pseudopotential on this center.
   36          1
                                   No pseudopotential on this center.
   37          6
                                   No pseudopotential on this center.
   38          8
                                   No pseudopotential on this center.
   39          1
                                   No pseudopotential on this center.
   40          1
                                   No pseudopotential on this center.
   41          1
                                   No pseudopotential on this center.
   42          6
                                   No pseudopotential on this center.
   43          1
                                   No pseudopotential on this center.
   44          1
                                   No pseudopotential on this center.
   45          1
                                   No pseudopotential on this center.
   46          8
                                   No pseudopotential on this center.
   47          1
                                   No pseudopotential on this center.
   48          1
                                   No pseudopotential on this center.
   49          1
                                   No pseudopotential on this center.
   50          6
                                   No pseudopotential on this center.
   51          1
                                   No pseudopotential on this center.
   52          1
                                   No pseudopotential on this center.
   53          1
                                   No pseudopotential on this center.
   54          6
                                   No pseudopotential on this center.
   55          1
                                   No pseudopotential on this center.
   56          1
                                   No pseudopotential on this center.
   57          1
                                   No pseudopotential on this center.
   58          6
                                   No pseudopotential on this center.
   59          1
                                   No pseudopotential on this center.
   60          1
                                   No pseudopotential on this center.
   61          1
                                   No pseudopotential on this center.
   62          6
                                   No pseudopotential on this center.
   63          1
                                   No pseudopotential on this center.
   64          1
                                   No pseudopotential on this center.
   65          1
                                   No pseudopotential on this center.
 ======================================================================================================
 There are   666 symmetry adapted cartesian basis functions of A   symmetry.
 There are   634 symmetry adapted basis functions of A   symmetry.
   634 basis functions,  1169 primitive gaussians,   666 cartesian basis functions
   125 alpha electrons      125 beta electrons
       nuclear repulsion energy      3981.9401147789 Hartrees.
 NAtoms=   65 NActive=   65 NUniq=   65 SFac= 1.00D+00 NAtFMM=   60 NAOKFM=T Big=T
 Integral buffers will be    131072 words long.
 Raffenetti 2 integral format.
 Two-electron integral symmetry is turned on.
 Standard density basis: Auto (5D, 7F)
  2775 Density fitting functions
 There are  2775 symmetry adapted density basis functions of A   symmetry.
 One-electron integrals computed using PRISM.
   1 Symmetry operations used in ECPInt.
 ECPInt:  NShTT=   25878 NPrTT=  135610 LenC2=   23140 LenP2D=   72160.
 LDataN:  DoStor=T MaxTD1= 5 Len=  102
 NBasis=   634 RedAO= T EigKep=  1.60D-06  NBF=   634
 NBsUse=   632 1.00D-06 EigRej=  9.29D-07 NBFU=   632
 Defaulting to unpruned grid for atomic number  46.
 ExpMin= 2.62D-02 ExpMax= 2.52D+04 ExpMxC= 3.78D+03 IAcc=3 IRadAn=         5 AccDes= 0.00D+00
 Harris functional with IExCor= 1009 and IRadAn=       5 diagonalized for initial guess.
 HarFok:  IExCor= 1009 AccDes= 0.00D+00 IRadAn=         5 IDoV= 1 UseB2=F ITyADJ=14
 ICtDFT=  3500011 ScaDFX=  1.000000  1.000000  1.000000  1.000000
 Defaulting to unpruned grid for atomic number  46.
 Defaulting to unpruned grid for atomic number  46.
 Defaulting to unpruned grid for atomic number  46.
 Defaulting to unpruned grid for atomic number  46.
 Defaulting to unpruned grid for atomic number  46.
 Defaulting to unpruned grid for atomic number  46.
 Defaulting to unpruned grid for atomic number  46.
 Defaulting to unpruned grid for atomic number  46.
 Defaulting to unpruned grid for atomic number  46.
 Defaulting to unpruned grid for atomic number  46.
 Defaulting to unpruned grid for atomic number  46.
 Defaulting to unpruned grid for atomic number  46.
 Defaulting to unpruned grid for atomic number  46.
 Defaulting to unpruned grid for atomic number  46.
 Defaulting to unpruned grid for atomic number  46.
 Defaulting to unpruned grid for atomic number  46.
 Defaulting to unpruned grid for atomic number  46.
 Defaulting to unpruned grid for atomic number  46.
 Defaulting to unpruned grid for atomic number  46.
 Defaulting to unpruned grid for atomic number  46.
 Defaulting to unpruned grid for atomic number  46.
 Defaulting to unpruned grid for atomic number  46.
 Defaulting to unpruned grid for atomic number  46.
 Defaulting to unpruned grid for atomic number  46.
 Defaulting to unpruned grid for atomic number  46.
 Defaulting to unpruned grid for atomic number  46.
 Defaulting to unpruned grid for atomic number  46.
 Defaulting to unpruned grid for atomic number  46.
 FoFCou: FMM=F IPFlag=           0 FMFlag=      100000 FMFlg1=        2001
         NFxFlg=           0 DoJE=T BraDBF=F KetDBF=T FulRan=T
         wScrn=  0.000000 ICntrl=     500 IOpCl=  0 I1Cent=   200000004 NGrid=           0
         NMat0=    1 NMatS0=      1 NMatT0=    0 NMatD0=    1 NMtDS0=    0 NMtDT0=    0
 Petite list used in FoFCou.
 Requested convergence on RMS density matrix=1.00D-08 within 128 cycles.
 Requested convergence on MAX density matrix=1.00D-06.
 Requested convergence on             energy=1.00D-06.
 No special actions if energy rises.
 Defaulting to unpruned grid for atomic number  46.
 Defaulting to unpruned grid for atomic number  46.
 Defaulting to unpruned grid for atomic number  46.
 Defaulting to unpruned grid for atomic number  46.
 Defaulting to unpruned grid for atomic number  46.
 Defaulting to unpruned grid for atomic number  46.
 Defaulting to unpruned grid for atomic number  46.
 Defaulting to unpruned grid for atomic number  46.
 Defaulting to unpruned grid for atomic number  46.
 Defaulting to unpruned grid for atomic number  46.
 Defaulting to unpruned grid for atomic number  46.
 Defaulting to unpruned grid for atomic number  46.
 Defaulting to unpruned grid for atomic number  46.
 Defaulting to unpruned grid for atomic number  46.
 Defaulting to unpruned grid for atomic number  46.
 Defaulting to unpruned grid for atomic number  46.
 Defaulting to unpruned grid for atomic number  46.
 Defaulting to unpruned grid for atomic number  46.
 Defaulting to unpruned grid for atomic number  46.
 Defaulting to unpruned grid for atomic number  46.
 Defaulting to unpruned grid for atomic number  46.
 Defaulting to unpruned grid for atomic number  46.
 Defaulting to unpruned grid for atomic number  46.
 Defaulting to unpruned grid for atomic number  46.
 Defaulting to unpruned grid for atomic number  46.
 Defaulting to unpruned grid for atomic number  46.
 Defaulting to unpruned grid for atomic number  46.
 Defaulting to unpruned grid for atomic number  46.
 EnCoef did     2 forward-backward iterations
 EnCoef did     2 forward-backward iterations
 EnCoef did     4 forward-backward iterations
 EnCoef did     3 forward-backward iterations
 Restarting incremental Fock formation.
 SCF Done:  E(RM06) =  -1856.01937805     A.U. after   25 cycles
            NFock= 25  Conv=0.55D-08     -V/T= 2.0508
 DoSCS=F DFT=T ScalE2(SS,OS)=  1.000000  1.000000
 Range of M.O.s used for correlation:     1   632
 NBasis=   634 NAE=   125 NBE=   125 NFC=     0 NFV=     0
 NROrb=    632 NOA=   125 NOB=   125 NVA=   507 NVB=   507

 **** Warning!!: The largest alpha MO coefficient is  0.11629572D+03

   1 Symmetry operations used in ECPInt.
 ECPInt:  NShTT=   25878 NPrTT=  135610 LenC2=   23140 LenP2D=   72160.
 LDataN:  DoStor=T MaxTD1= 6 Len=  172
 Number of processors reduced to   9 by ecpmxn.
 Symmetrizing basis deriv contribution to polar:
 IMax=3 JMax=2 DiffMx= 0.00D+00
 G2DrvN: will do    66 centers at a time, making    1 passes.
 Calling FoFCou, ICntrl=  3107 FMM=T I1Cent=   0 AccDes= 0.00D+00.
 Defaulting to unpruned grid for atomic number  46.
 Defaulting to unpruned grid for atomic number  46.
 Defaulting to unpruned grid for atomic number  46.
 Defaulting to unpruned grid for atomic number  46.
 Defaulting to unpruned grid for atomic number  46.
 Defaulting to unpruned grid for atomic number  46.
 Defaulting to unpruned grid for atomic number  46.
 Defaulting to unpruned grid for atomic number  46.
 Defaulting to unpruned grid for atomic number  46.
 Defaulting to unpruned grid for atomic number  46.
 Defaulting to unpruned grid for atomic number  46.
 Defaulting to unpruned grid for atomic number  46.
 Defaulting to unpruned grid for atomic number  46.
 Defaulting to unpruned grid for atomic number  46.
 Defaulting to unpruned grid for atomic number  46.
 Defaulting to unpruned grid for atomic number  46.
 Defaulting to unpruned grid for atomic number  46.
 Defaulting to unpruned grid for atomic number  46.
 Defaulting to unpruned grid for atomic number  46.
 Defaulting to unpruned grid for atomic number  46.
 Defaulting to unpruned grid for atomic number  46.
 Defaulting to unpruned grid for atomic number  46.
 Defaulting to unpruned grid for atomic number  46.
 Defaulting to unpruned grid for atomic number  46.
 Defaulting to unpruned grid for atomic number  46.
 Defaulting to unpruned grid for atomic number  46.
 Defaulting to unpruned grid for atomic number  46.
 Defaulting to unpruned grid for atomic number  46.
 End of G2Drv F.D. properties file   721 does not exist.
 End of G2Drv F.D. properties file   722 does not exist.
 End of G2Drv F.D. properties file   788 does not exist.
          IDoAtm=11111111111111111111111111111111111111111111111111
          IDoAtm=111111111111111
          Differentiating once with respect to electric field.
                with respect to dipole field.
          Differentiating once with respect to nuclear coordinates.
 Defaulting to unpruned grid for atomic number  46.
 CalDSu exits because no D1Ps are significant.
 Defaulting to unpruned grid for atomic number  46.
 Defaulting to unpruned grid for atomic number  46.
 Defaulting to unpruned grid for atomic number  46.
 Defaulting to unpruned grid for atomic number  46.
 Defaulting to unpruned grid for atomic number  46.
 Defaulting to unpruned grid for atomic number  46.
 Defaulting to unpruned grid for atomic number  46.
 Defaulting to unpruned grid for atomic number  46.
 Defaulting to unpruned grid for atomic number  46.
 Defaulting to unpruned grid for atomic number  46.
 Defaulting to unpruned grid for atomic number  46.
 Defaulting to unpruned grid for atomic number  46.
 Defaulting to unpruned grid for atomic number  46.
 Defaulting to unpruned grid for atomic number  46.
 Defaulting to unpruned grid for atomic number  46.
 Defaulting to unpruned grid for atomic number  46.
 Defaulting to unpruned grid for atomic number  46.
 Defaulting to unpruned grid for atomic number  46.
 Defaulting to unpruned grid for atomic number  46.
 Defaulting to unpruned grid for atomic number  46.
 Defaulting to unpruned grid for atomic number  46.
 Defaulting to unpruned grid for atomic number  46.
 Defaulting to unpruned grid for atomic number  46.
 Defaulting to unpruned grid for atomic number  46.
 Defaulting to unpruned grid for atomic number  46.
 Defaulting to unpruned grid for atomic number  46.
 Defaulting to unpruned grid for atomic number  46.
 Defaulting to unpruned grid for atomic number  46.
          There are   198 degrees of freedom in the 1st order CPHF.  IDoFFX=6 NUNeed=     3.
    198 vectors produced by pass  0 Test12= 6.34D-14 1.00D-09 XBig12= 4.69D+02 8.33D+00.
 AX will form    84 AO Fock derivatives at one time.
    198 vectors produced by pass  1 Test12= 6.34D-14 1.00D-09 XBig12= 8.70D+01 1.39D+00.
    195 vectors produced by pass  2 Test12= 6.34D-14 1.00D-09 XBig12= 1.28D+00 1.16D-01.
    195 vectors produced by pass  3 Test12= 6.34D-14 1.00D-09 XBig12= 9.29D-03 5.93D-03.
    195 vectors produced by pass  4 Test12= 6.34D-14 1.00D-09 XBig12= 4.85D-05 3.90D-04.
    195 vectors produced by pass  5 Test12= 6.34D-14 1.00D-09 XBig12= 1.38D-07 2.01D-05.
    189 vectors produced by pass  6 Test12= 6.34D-14 1.00D-09 XBig12= 3.22D-10 9.15D-07.
    184 vectors produced by pass  7 Test12= 6.34D-14 1.00D-09 XBig12= 1.98D-12 5.36D-08.
    184 vectors produced by pass  8 Test12= 6.34D-14 1.00D-09 XBig12= 1.61D-13 1.75D-08.
    183 vectors produced by pass  9 Test12= 6.34D-14 1.00D-09 XBig12= 9.66D-14 1.18D-08.
    181 vectors produced by pass 10 Test12= 6.34D-14 1.00D-09 XBig12= 7.49D-14 1.10D-08.
    174 vectors produced by pass 11 Test12= 6.34D-14 1.00D-09 XBig12= 8.25D-14 1.13D-08.
    168 vectors produced by pass 12 Test12= 6.34D-14 1.00D-09 XBig12= 5.65D-14 8.59D-09.
    109 vectors produced by pass 13 Test12= 6.34D-14 1.00D-09 XBig12= 4.60D-14 7.85D-09.
    105 vectors produced by pass 14 Test12= 6.34D-14 1.00D-09 XBig12= 4.11D-14 8.48D-09.
    105 vectors produced by pass 15 Test12= 6.34D-14 1.00D-09 XBig12= 3.44D-14 6.26D-09.
     92 vectors produced by pass 16 Test12= 6.34D-14 1.00D-09 XBig12= 2.67D-14 6.08D-09.
     88 vectors produced by pass 17 Test12= 6.34D-14 1.00D-09 XBig12= 1.88D-14 4.59D-09.
     57 vectors produced by pass 18 Test12= 6.34D-14 1.00D-09 XBig12= 1.03D-14 3.54D-09.
     57 vectors produced by pass 19 Test12= 6.34D-14 1.00D-09 XBig12= 1.31D-14 3.70D-09.
     57 vectors produced by pass 20 Test12= 6.34D-14 1.00D-09 XBig12= 1.64D-14 5.48D-09.
     57 vectors produced by pass 21 Test12= 6.34D-14 1.00D-09 XBig12= 1.46D-14 4.14D-09.
     51 vectors produced by pass 22 Test12= 6.34D-14 1.00D-09 XBig12= 9.79D-15 3.30D-09.
     51 vectors produced by pass 23 Test12= 6.34D-14 1.00D-09 XBig12= 1.68D-14 4.87D-09.
     38 vectors produced by pass 24 Test12= 6.34D-14 1.00D-09 XBig12= 7.04D-15 2.79D-09.
     38 vectors produced by pass 25 Test12= 6.34D-14 1.00D-09 XBig12= 1.53D-14 3.96D-09.
     26 vectors produced by pass 26 Test12= 6.34D-14 1.00D-09 XBig12= 6.02D-15 2.37D-09.
     26 vectors produced by pass 27 Test12= 6.34D-14 1.00D-09 XBig12= 9.29D-15 3.50D-09.
     26 vectors produced by pass 28 Test12= 6.34D-14 1.00D-09 XBig12= 1.65D-14 4.06D-09.
     26 vectors produced by pass 29 Test12= 6.34D-14 1.00D-09 XBig12= 9.42D-15 3.00D-09.
     26 vectors produced by pass 30 Test12= 6.34D-14 1.00D-09 XBig12= 8.35D-15 2.67D-09.
     26 vectors produced by pass 31 Test12= 6.34D-14 1.00D-09 XBig12= 1.28D-14 3.60D-09.
     24 vectors produced by pass 32 Test12= 6.34D-14 1.00D-09 XBig12= 6.54D-15 2.45D-09.
     22 vectors produced by pass 33 Test12= 6.34D-14 1.00D-09 XBig12= 6.08D-15 2.55D-09.
     22 vectors produced by pass 34 Test12= 6.34D-14 1.00D-09 XBig12= 8.57D-15 3.25D-09.
     22 vectors produced by pass 35 Test12= 6.34D-14 1.00D-09 XBig12= 5.39D-15 2.39D-09.
     22 vectors produced by pass 36 Test12= 6.34D-14 1.00D-09 XBig12= 9.29D-15 3.26D-09.
     22 vectors produced by pass 37 Test12= 6.34D-14 1.00D-09 XBig12= 1.06D-14 2.99D-09.
     22 vectors produced by pass 38 Test12= 6.34D-14 1.00D-09 XBig12= 8.17D-15 2.92D-09.
     22 vectors produced by pass 39 Test12= 6.34D-14 1.00D-09 XBig12= 7.89D-15 2.50D-09.
     14 vectors produced by pass 40 Test12= 6.34D-14 1.00D-09 XBig12= 5.32D-15 2.42D-09.
     13 vectors produced by pass 41 Test12= 6.34D-14 1.00D-09 XBig12= 6.38D-15 2.50D-09.
     13 vectors produced by pass 42 Test12= 6.34D-14 1.00D-09 XBig12= 9.63D-15 3.24D-09.
      4 vectors produced by pass 43 Test12= 6.34D-14 1.00D-09 XBig12= 2.72D-15 1.41D-09.
      4 vectors produced by pass 44 Test12= 6.34D-14 1.00D-09 XBig12= 3.79D-15 2.02D-09.
      4 vectors produced by pass 45 Test12= 6.34D-14 1.00D-09 XBig12= 4.42D-15 2.08D-09.
      4 vectors produced by pass 46 Test12= 6.34D-14 1.00D-09 XBig12= 7.42D-15 3.04D-09.
      4 vectors produced by pass 47 Test12= 6.34D-14 1.00D-09 XBig12= 5.34D-15 2.37D-09.
      4 vectors produced by pass 48 Test12= 6.34D-14 1.00D-09 XBig12= 3.86D-15 1.73D-09.
      4 vectors produced by pass 49 Test12= 6.34D-14 1.00D-09 XBig12= 8.60D-15 2.83D-09.
      4 vectors produced by pass 50 Test12= 6.34D-14 1.00D-09 XBig12= 4.81D-15 2.08D-09.
      4 vectors produced by pass 51 Test12= 6.34D-14 1.00D-09 XBig12= 3.87D-15 1.97D-09.
      4 vectors produced by pass 52 Test12= 6.34D-14 1.00D-09 XBig12= 4.33D-15 2.12D-09.
      4 vectors produced by pass 53 Test12= 6.34D-14 1.00D-09 XBig12= 6.91D-15 2.95D-09.
      4 vectors produced by pass 54 Test12= 6.34D-14 1.00D-09 XBig12= 4.20D-15 1.89D-09.
      4 vectors produced by pass 55 Test12= 6.34D-14 1.00D-09 XBig12= 3.33D-15 2.05D-09.
      4 vectors produced by pass 56 Test12= 6.34D-14 1.00D-09 XBig12= 3.91D-15 2.04D-09.
      4 vectors produced by pass 57 Test12= 6.34D-14 1.00D-09 XBig12= 5.49D-15 2.39D-09.
      4 vectors produced by pass 58 Test12= 6.34D-14 1.00D-09 XBig12= 3.38D-15 1.75D-09.
      4 vectors produced by pass 59 Test12= 6.34D-14 1.00D-09 XBig12= 3.02D-15 1.62D-09.
      4 vectors produced by pass 60 Test12= 6.34D-14 1.00D-09 XBig12= 4.85D-15 2.04D-09.
      4 vectors produced by pass 61 Test12= 6.34D-14 1.00D-09 XBig12= 4.92D-15 1.98D-09.
      4 vectors produced by pass 62 Test12= 6.34D-14 1.00D-09 XBig12= 6.86D-15 2.57D-09.
      4 vectors produced by pass 63 Test12= 6.34D-14 1.00D-09 XBig12= 3.50D-15 1.70D-09.
      4 vectors produced by pass 64 Test12= 6.34D-14 1.00D-09 XBig12= 7.19D-15 3.03D-09.
      4 vectors produced by pass 65 Test12= 6.34D-14 1.00D-09 XBig12= 5.07D-15 2.38D-09.
      4 vectors produced by pass 66 Test12= 6.34D-14 1.00D-09 XBig12= 5.76D-15 2.27D-09.
      4 vectors produced by pass 67 Test12= 6.34D-14 1.00D-09 XBig12= 2.64D-15 1.58D-09.
      4 vectors produced by pass 68 Test12= 6.34D-14 1.00D-09 XBig12= 4.73D-15 2.18D-09.
      4 vectors produced by pass 69 Test12= 6.34D-14 1.00D-09 XBig12= 7.04D-15 2.93D-09.
      4 vectors produced by pass 70 Test12= 6.34D-14 1.00D-09 XBig12= 4.61D-15 2.09D-09.
      4 vectors produced by pass 71 Test12= 6.34D-14 1.00D-09 XBig12= 6.76D-15 2.91D-09.
      4 vectors produced by pass 72 Test12= 6.34D-14 1.00D-09 XBig12= 5.28D-15 2.32D-09.
      4 vectors produced by pass 73 Test12= 6.34D-14 1.00D-09 XBig12= 6.10D-15 2.29D-09.
      4 vectors produced by pass 74 Test12= 6.34D-14 1.00D-09 XBig12= 3.26D-15 1.81D-09.
      4 vectors produced by pass 75 Test12= 6.34D-14 1.00D-09 XBig12= 3.32D-15 1.60D-09.
      4 vectors produced by pass 76 Test12= 6.34D-14 1.00D-09 XBig12= 7.94D-15 2.64D-09.
      4 vectors produced by pass 77 Test12= 6.34D-14 1.00D-09 XBig12= 6.04D-15 2.16D-09.
      4 vectors produced by pass 78 Test12= 6.34D-14 1.00D-09 XBig12= 4.46D-15 1.85D-09.
      4 vectors produced by pass 79 Test12= 6.34D-14 1.00D-09 XBig12= 4.13D-15 1.92D-09.
      4 vectors produced by pass 80 Test12= 6.34D-14 1.00D-09 XBig12= 4.15D-15 1.98D-09.
      4 vectors produced by pass 81 Test12= 6.34D-14 1.00D-09 XBig12= 7.71D-15 2.80D-09.
      4 vectors produced by pass 82 Test12= 6.34D-14 1.00D-09 XBig12= 3.61D-15 1.82D-09.
      4 vectors produced by pass 83 Test12= 6.34D-14 1.00D-09 XBig12= 3.61D-15 1.79D-09.
      4 vectors produced by pass 84 Test12= 6.34D-14 1.00D-09 XBig12= 2.81D-15 1.51D-09.
      4 vectors produced by pass 85 Test12= 6.34D-14 1.00D-09 XBig12= 6.54D-15 2.23D-09.
      4 vectors produced by pass 86 Test12= 6.34D-14 1.00D-09 XBig12= 5.51D-15 2.26D-09.
      4 vectors produced by pass 87 Test12= 6.34D-14 1.00D-09 XBig12= 4.86D-15 2.08D-09.
      4 vectors produced by pass 88 Test12= 6.34D-14 1.00D-09 XBig12= 7.64D-15 2.39D-09.
      4 vectors produced by pass 89 Test12= 6.34D-14 1.00D-09 XBig12= 3.44D-15 1.68D-09.
      4 vectors produced by pass 90 Test12= 6.34D-14 1.00D-09 XBig12= 4.81D-15 2.07D-09.
      4 vectors produced by pass 91 Test12= 6.34D-14 1.00D-09 XBig12= 3.97D-15 1.93D-09.
      4 vectors produced by pass 92 Test12= 6.34D-14 1.00D-09 XBig12= 5.63D-15 2.25D-09.
      4 vectors produced by pass 93 Test12= 6.34D-14 1.00D-09 XBig12= 2.52D-15 1.47D-09.
      4 vectors produced by pass 94 Test12= 6.34D-14 1.00D-09 XBig12= 7.43D-15 2.60D-09.
      4 vectors produced by pass 95 Test12= 6.34D-14 1.00D-09 XBig12= 3.85D-15 1.79D-09.
      4 vectors produced by pass 96 Test12= 6.34D-14 1.00D-09 XBig12= 5.88D-15 2.46D-09.
      4 vectors produced by pass 97 Test12= 6.34D-14 1.00D-09 XBig12= 3.26D-15 1.82D-09.
      4 vectors produced by pass 98 Test12= 6.34D-14 1.00D-09 XBig12= 4.20D-15 1.97D-09.
      4 vectors produced by pass 99 Test12= 6.34D-14 1.00D-09 XBig12= 3.46D-15 1.69D-09.
      4 vectors produced by pass100 Test12= 6.34D-14 1.00D-09 XBig12= 8.86D-15 2.94D-09.
      4 vectors produced by pass101 Test12= 6.34D-14 1.00D-09 XBig12= 4.00D-15 1.96D-09.
      4 vectors produced by pass102 Test12= 6.34D-14 1.00D-09 XBig12= 5.33D-15 2.43D-09.
      4 vectors produced by pass103 Test12= 6.34D-14 1.00D-09 XBig12= 3.03D-15 1.86D-09.
      4 vectors produced by pass104 Test12= 6.34D-14 1.00D-09 XBig12= 2.91D-15 1.66D-09.
      4 vectors produced by pass105 Test12= 6.34D-14 1.00D-09 XBig12= 4.75D-15 1.95D-09.
      4 vectors produced by pass106 Test12= 6.34D-14 1.00D-09 XBig12= 2.78D-15 1.68D-09.
      4 vectors produced by pass107 Test12= 6.34D-14 1.00D-09 XBig12= 7.08D-15 2.54D-09.
      4 vectors produced by pass108 Test12= 6.34D-14 1.00D-09 XBig12= 5.03D-15 2.28D-09.
      4 vectors produced by pass109 Test12= 6.34D-14 1.00D-09 XBig12= 3.61D-15 1.91D-09.
      4 vectors produced by pass110 Test12= 6.34D-14 1.00D-09 XBig12= 5.15D-15 2.40D-09.
      4 vectors produced by pass111 Test12= 6.34D-14 1.00D-09 XBig12= 3.92D-15 1.86D-09.
      4 vectors produced by pass112 Test12= 6.34D-14 1.00D-09 XBig12= 6.07D-15 2.74D-09.
      4 vectors produced by pass113 Test12= 6.34D-14 1.00D-09 XBig12= 4.89D-15 2.00D-09.
      4 vectors produced by pass114 Test12= 6.34D-14 1.00D-09 XBig12= 4.90D-15 2.06D-09.
      4 vectors produced by pass115 Test12= 6.34D-14 1.00D-09 XBig12= 4.86D-15 2.14D-09.
      4 vectors produced by pass116 Test12= 6.34D-14 1.00D-09 XBig12= 4.84D-15 2.31D-09.
      4 vectors produced by pass117 Test12= 6.34D-14 1.00D-09 XBig12= 2.59D-15 1.65D-09.
      4 vectors produced by pass118 Test12= 6.34D-14 1.00D-09 XBig12= 2.89D-15 1.80D-09.
      4 vectors produced by pass119 Test12= 6.34D-14 1.00D-09 XBig12= 5.58D-15 2.31D-09.
      4 vectors produced by pass120 Test12= 6.34D-14 1.00D-09 XBig12= 4.28D-15 2.15D-09.
      4 vectors produced by pass121 Test12= 6.34D-14 1.00D-09 XBig12= 3.89D-15 1.74D-09.
      4 vectors produced by pass122 Test12= 6.34D-14 1.00D-09 XBig12= 4.12D-15 1.97D-09.
      4 vectors produced by pass123 Test12= 6.34D-14 1.00D-09 XBig12= 2.66D-15 1.65D-09.
      4 vectors produced by pass124 Test12= 6.34D-14 1.00D-09 XBig12= 2.88D-15 1.58D-09.
      4 vectors produced by pass125 Test12= 6.34D-14 1.00D-09 XBig12= 4.82D-15 2.32D-09.
      4 vectors produced by pass126 Test12= 6.34D-14 1.00D-09 XBig12= 2.20D-15 1.38D-09.
      4 vectors produced by pass127 Test12= 6.34D-14 1.00D-09 XBig12= 5.89D-15 2.23D-09.
      4 vectors produced by pass128 Test12= 6.34D-14 1.00D-09 XBig12= 2.55D-15 1.54D-09.
      2 vectors produced by pass129 Test12= 6.34D-14 1.00D-09 XBig12= 1.78D-15 1.21D-09.
 InvSVY:  IOpt=1 It=  1 EMax= 2.49D-14
 Solved reduced A of dimension  4064 with   198 vectors.
 Isotropic polarizability for W=    0.000000      344.19 Bohr**3.
 End of Minotr F.D. properties file   721 does not exist.
 End of Minotr F.D. properties file   722 does not exist.
 End of Minotr F.D. properties file   788 does not exist.

 **********************************************************************

            Population analysis using the SCF density.

 **********************************************************************

 Orbital symmetries:
       Occupied  (A) (A) (A) (A) (A) (A) (A) (A) (A) (A) (A) (A)
                 (A) (A) (A) (A) (A) (A) (A) (A) (A) (A) (A) (A)
                 (A) (A) (A) (A) (A) (A) (A) (A) (A) (A) (A) (A)
                 (A) (A) (A) (A) (A) (A) (A) (A) (A) (A) (A) (A)
                 (A) (A) (A) (A) (A) (A) (A) (A) (A) (A) (A) (A)
                 (A) (A) (A) (A) (A) (A) (A) (A) (A) (A) (A) (A)
                 (A) (A) (A) (A) (A) (A) (A) (A) (A) (A) (A) (A)
                 (A) (A) (A) (A) (A) (A) (A) (A) (A) (A) (A) (A)
                 (A) (A) (A) (A) (A) (A) (A) (A) (A) (A) (A) (A)
                 (A) (A) (A) (A) (A) (A) (A) (A) (A) (A) (A) (A)
                 (A) (A) (A) (A) (A)
       Virtual   (A) (A) (A) (A) (A) (A) (A) (A) (A) (A) (A) (A)
                 (A) (A) (A) (A) (A) (A) (A) (A) (A) (A) (A) (A)
                 (A) (A) (A) (A) (A) (A) (A) (A) (A) (A) (A) (A)
                 (A) (A) (A) (A) (A) (A) (A) (A) (A) (A) (A) (A)
                 (A) (A) (A) (A) (A) (A) (A) (A) (A) (A) (A) (A)
                 (A) (A) (A) (A) (A) (A) (A) (A) (A) (A) (A) (A)
                 (A) (A) (A) (A) (A) (A) (A) (A) (A) (A) (A) (A)
                 (A) (A) (A) (A) (A) (A) (A) (A) (A) (A) (A) (A)
                 (A) (A) (A) (A) (A) (A) (A) (A) (A) (A) (A) (A)
                 (A) (A) (A) (A) (A) (A) (A) (A) (A) (A) (A) (A)
                 (A) (A) (A) (A) (A) (A) (A) (A) (A) (A) (A) (A)
                 (A) (A) (A) (A) (A) (A) (A) (A) (A) (A) (A) (A)
                 (A) (A) (A) (A) (A) (A) (A) (A) (A) (A) (A) (A)
                 (A) (A) (A) (A) (A) (A) (A) (A) (A) (A) (A) (A)
                 (A) (A) (A) (A) (A) (A) (A) (A) (A) (A) (A) (A)
                 (A) (A) (A) (A) (A) (A) (A) (A) (A) (A) (A) (A)
                 (A) (A) (A) (A) (A) (A) (A) (A) (A) (A) (A) (A)
                 (A) (A) (A) (A) (A) (A) (A) (A) (A) (A) (A) (A)
                 (A) (A) (A) (A) (A) (A) (A) (A) (A) (A) (A) (A)
                 (A) (A) (A) (A) (A) (A) (A) (A) (A) (A) (A) (A)
                 (A) (A) (A) (A) (A) (A) (A) (A) (A) (A) (A) (A)
                 (A) (A) (A) (A) (A) (A) (A) (A) (A) (A) (A) (A)
                 (A) (A) (A) (A) (A) (A) (A) (A) (A) (A) (A) (A)
                 (A) (A) (A) (A) (A) (A) (A) (A) (A) (A) (A) (A)
                 (A) (A) (A) (A) (A) (A) (A) (A) (A) (A) (A) (A)
                 (A) (A) (A) (A) (A) (A) (A) (A) (A) (A) (A) (A)
                 (A) (A) (A) (A) (A) (A) (A) (A) (A) (A) (A) (A)
                 (A) (A) (A) (A) (A) (A) (A) (A) (A) (A) (A) (A)
                 (A) (A) (A) (A) (A) (A) (A) (A) (A) (A) (A) (A)
                 (A) (A) (A) (A) (A) (A) (A) (A) (A) (A) (A) (A)
                 (A) (A) (A) (A) (A) (A) (A) (A) (A) (A) (A) (A)
                 (A) (A) (A) (A) (A) (A) (A) (A) (A) (A) (A) (A)
                 (A) (A) (A) (A) (A) (A) (A) (A) (A) (A) (A) (A)
                 (A) (A) (A) (A) (A) (A) (A) (A) (A) (A) (A) (A)
                 (A) (A) (A) (A) (A) (A) (A) (A) (A) (A) (A) (A)
                 (A) (A) (A) (A) (A) (A) (A) (A) (A) (A) (A) (A)
                 (A) (A) (A) (A) (A) (A) (A) (A) (A) (A) (A) (A)
                 (A) (A) (A) (A) (A) (A) (A) (A) (A) (A) (A) (A)
                 (A) (A) (A) (A) (A) (A) (A) (A) (A) (A) (A) (A)
                 (A) (A) (A) (A) (A) (A) (A) (A) (A) (A) (A) (A)
                 (A) (A) (A) (A) (A) (A) (A) (A) (A) (A) (A) (A)
                 (A) (A) (A) (A) (A) (A) (A) (A) (A) (A) (A) (A)
                 (A) (A) (A)
 The electronic state is 1-A.
 Alpha  occ. eigenvalues -- -101.85121 -19.41149 -19.34503 -19.32254 -14.58594
 Alpha  occ. eigenvalues --  -14.54585 -10.49422 -10.49389 -10.45499 -10.44343
 Alpha  occ. eigenvalues --  -10.42812 -10.42507 -10.41715 -10.41421 -10.41319
 Alpha  occ. eigenvalues --  -10.41107 -10.40793 -10.40646 -10.40532 -10.37780
 Alpha  occ. eigenvalues --  -10.36938 -10.36723 -10.36079 -10.35745 -10.35707
 Alpha  occ. eigenvalues --  -10.35134 -10.35083 -10.33608 -10.33435 -10.33240
 Alpha  occ. eigenvalues --   -9.72392  -7.43645  -7.42629  -7.42566  -3.46422
 Alpha  occ. eigenvalues --   -2.20657  -2.20558  -2.17625  -1.26392  -1.16349
 Alpha  occ. eigenvalues --   -1.16129  -1.13686  -1.06720  -1.01920  -0.97816
 Alpha  occ. eigenvalues --   -0.97117  -0.95761  -0.95473  -0.92281  -0.90046
 Alpha  occ. eigenvalues --   -0.87698  -0.87165  -0.85128  -0.81971  -0.81319
 Alpha  occ. eigenvalues --   -0.80329  -0.79972  -0.79318  -0.79173  -0.77192
 Alpha  occ. eigenvalues --   -0.76466  -0.72415  -0.72224  -0.70993  -0.68539
 Alpha  occ. eigenvalues --   -0.66955  -0.66472  -0.65668  -0.65064  -0.64455
 Alpha  occ. eigenvalues --   -0.63219  -0.61596  -0.60731  -0.60610  -0.59639
 Alpha  occ. eigenvalues --   -0.59250  -0.59048  -0.58824  -0.58095  -0.57537
 Alpha  occ. eigenvalues --   -0.56771  -0.56514  -0.56288  -0.55972  -0.55401
 Alpha  occ. eigenvalues --   -0.54131  -0.53949  -0.53515  -0.53065  -0.52997
 Alpha  occ. eigenvalues --   -0.52344  -0.52218  -0.51792  -0.51555  -0.51135
 Alpha  occ. eigenvalues --   -0.50778  -0.50521  -0.50202  -0.49378  -0.49310
 Alpha  occ. eigenvalues --   -0.48625  -0.48266  -0.48100  -0.47904  -0.47564
 Alpha  occ. eigenvalues --   -0.47298  -0.47067  -0.46560  -0.46306  -0.45364
 Alpha  occ. eigenvalues --   -0.45175  -0.44744  -0.44182  -0.43759  -0.43427
 Alpha  occ. eigenvalues --   -0.43157  -0.41318  -0.40688  -0.40437  -0.40072
 Alpha  occ. eigenvalues --   -0.39743  -0.38155  -0.37446  -0.35849  -0.35742
 Alpha virt. eigenvalues --   -0.19780  -0.18893  -0.17535  -0.16166  -0.12773
 Alpha virt. eigenvalues --   -0.12229  -0.11747  -0.10794  -0.10618  -0.10427
 Alpha virt. eigenvalues --   -0.09922  -0.09518  -0.09376  -0.09032  -0.08886
 Alpha virt. eigenvalues --   -0.08521  -0.08473  -0.08239  -0.07670  -0.07535
 Alpha virt. eigenvalues --   -0.07179  -0.07045  -0.06494  -0.06271  -0.06098
 Alpha virt. eigenvalues --   -0.05682  -0.05323  -0.05036  -0.04626  -0.04530
 Alpha virt. eigenvalues --   -0.04285  -0.04190  -0.04075  -0.03826  -0.03621
 Alpha virt. eigenvalues --   -0.03249  -0.03170  -0.02606  -0.02223  -0.02037
 Alpha virt. eigenvalues --   -0.01895  -0.01711  -0.01464  -0.01170  -0.00944
 Alpha virt. eigenvalues --   -0.00858  -0.00539  -0.00325   0.00155   0.00406
 Alpha virt. eigenvalues --    0.00603   0.00880   0.00917   0.01179   0.01578
 Alpha virt. eigenvalues --    0.01600   0.02014   0.02175   0.02538   0.02802
 Alpha virt. eigenvalues --    0.02935   0.03115   0.03466   0.03580   0.03705
 Alpha virt. eigenvalues --    0.04049   0.04166   0.04592   0.04862   0.04878
 Alpha virt. eigenvalues --    0.04963   0.05222   0.05447   0.05679   0.05857
 Alpha virt. eigenvalues --    0.06283   0.06552   0.06661   0.06925   0.07204
 Alpha virt. eigenvalues --    0.07490   0.07576   0.07946   0.08016   0.08102
 Alpha virt. eigenvalues --    0.08391   0.08506   0.08818   0.09090   0.09307
 Alpha virt. eigenvalues --    0.09552   0.09616   0.09708   0.10051   0.10143
 Alpha virt. eigenvalues --    0.10372   0.10729   0.10840   0.10941   0.11251
 Alpha virt. eigenvalues --    0.11330   0.11437   0.11778   0.12101   0.12400
 Alpha virt. eigenvalues --    0.12539   0.12598   0.12844   0.13034   0.13144
 Alpha virt. eigenvalues --    0.13609   0.13712   0.14023   0.14148   0.14312
 Alpha virt. eigenvalues --    0.14532   0.14852   0.15136   0.15167   0.15407
 Alpha virt. eigenvalues --    0.15560   0.15622   0.15938   0.16247   0.16467
 Alpha virt. eigenvalues --    0.16623   0.16805   0.17084   0.17229   0.17412
 Alpha virt. eigenvalues --    0.17955   0.18119   0.18330   0.18476   0.19011
 Alpha virt. eigenvalues --    0.19196   0.19270   0.19667   0.19858   0.20107
 Alpha virt. eigenvalues --    0.20306   0.20706   0.20857   0.21277   0.21481
 Alpha virt. eigenvalues --    0.21960   0.22319   0.22448   0.22664   0.23025
 Alpha virt. eigenvalues --    0.23278   0.23417   0.23743   0.23917   0.24358
 Alpha virt. eigenvalues --    0.24508   0.24861   0.25160   0.25699   0.25823
 Alpha virt. eigenvalues --    0.26266   0.26368   0.26959   0.27393   0.27825
 Alpha virt. eigenvalues --    0.28021   0.28424   0.28769   0.29326   0.29401
 Alpha virt. eigenvalues --    0.29662   0.30017   0.30633   0.31361   0.32061
 Alpha virt. eigenvalues --    0.32326   0.32448   0.32607   0.33402   0.33613
 Alpha virt. eigenvalues --    0.34245   0.35101   0.35428   0.35897   0.36623
 Alpha virt. eigenvalues --    0.37416   0.37593   0.37941   0.39328   0.40180
 Alpha virt. eigenvalues --    0.40325   0.42157   0.43433   0.43769   0.44879
 Alpha virt. eigenvalues --    0.46157   0.48775   0.49423   0.53748   0.54513
 Alpha virt. eigenvalues --    0.55116   0.55742   0.56279   0.56499   0.57050
 Alpha virt. eigenvalues --    0.57793   0.58166   0.58755   0.58842   0.59871
 Alpha virt. eigenvalues --    0.60241   0.60819   0.61271   0.62104   0.62306
 Alpha virt. eigenvalues --    0.62583   0.63007   0.63268   0.63561   0.63819
 Alpha virt. eigenvalues --    0.64578   0.64929   0.65160   0.65900   0.66135
 Alpha virt. eigenvalues --    0.66617   0.66968   0.67251   0.67760   0.68032
 Alpha virt. eigenvalues --    0.68885   0.69376   0.69530   0.69765   0.70711
 Alpha virt. eigenvalues --    0.70903   0.71355   0.71768   0.72258   0.72925
 Alpha virt. eigenvalues --    0.73177   0.74141   0.74824   0.75180   0.75902
 Alpha virt. eigenvalues --    0.76426   0.76767   0.77030   0.77687   0.78078
 Alpha virt. eigenvalues --    0.78135   0.78634   0.79360   0.79379   0.80582
 Alpha virt. eigenvalues --    0.80977   0.81187   0.81494   0.82558   0.82831
 Alpha virt. eigenvalues --    0.83167   0.83495   0.84289   0.84529   0.85120
 Alpha virt. eigenvalues --    0.85253   0.85980   0.86933   0.87593   0.88260
 Alpha virt. eigenvalues --    0.88870   0.89383   0.89645   0.90307   0.90757
 Alpha virt. eigenvalues --    0.91025   0.91477   0.92140   0.92239   0.93142
 Alpha virt. eigenvalues --    0.93372   0.93813   0.94128   0.95247   0.96100
 Alpha virt. eigenvalues --    0.96199   0.96575   0.97066   0.98089   0.98251
 Alpha virt. eigenvalues --    0.98828   0.99212   0.99821   1.00339   1.00971
 Alpha virt. eigenvalues --    1.01403   1.01629   1.02004   1.03010   1.03370
 Alpha virt. eigenvalues --    1.03943   1.04298   1.04683   1.05193   1.06395
 Alpha virt. eigenvalues --    1.07395   1.07436   1.07590   1.08241   1.08924
 Alpha virt. eigenvalues --    1.09190   1.10479   1.11112   1.11551   1.12819
 Alpha virt. eigenvalues --    1.13182   1.13951   1.14856   1.15059   1.15875
 Alpha virt. eigenvalues --    1.16562   1.17636   1.18374   1.19588   1.19818
 Alpha virt. eigenvalues --    1.20577   1.21258   1.22046   1.22318   1.23660
 Alpha virt. eigenvalues --    1.24351   1.24851   1.25395   1.27632   1.28051
 Alpha virt. eigenvalues --    1.28630   1.28947   1.30332   1.30580   1.31670
 Alpha virt. eigenvalues --    1.31804   1.33159   1.33788   1.34709   1.36071
 Alpha virt. eigenvalues --    1.36749   1.37184   1.38722   1.39067   1.39421
 Alpha virt. eigenvalues --    1.40209   1.41550   1.42384   1.43050   1.43793
 Alpha virt. eigenvalues --    1.44667   1.45018   1.46301   1.48485   1.49310
 Alpha virt. eigenvalues --    1.51164   1.51528   1.52699   1.54376   1.55625
 Alpha virt. eigenvalues --    1.56274   1.57342   1.59090   1.59730   1.60814
 Alpha virt. eigenvalues --    1.61406   1.62883   1.64098   1.64817   1.66015
 Alpha virt. eigenvalues --    1.66714   1.66906   1.67973   1.69126   1.70810
 Alpha virt. eigenvalues --    1.71099   1.71689   1.72102   1.72950   1.73180
 Alpha virt. eigenvalues --    1.74271   1.75271   1.75496   1.76774   1.77202
 Alpha virt. eigenvalues --    1.77774   1.78802   1.79466   1.79864   1.80219
 Alpha virt. eigenvalues --    1.80852   1.81773   1.82461   1.82626   1.83101
 Alpha virt. eigenvalues --    1.84150   1.85055   1.85748   1.86759   1.87741
 Alpha virt. eigenvalues --    1.88733   1.89944   1.90603   1.91352   1.92059
 Alpha virt. eigenvalues --    1.93052   1.93382   1.94309   1.95417   1.95873
 Alpha virt. eigenvalues --    1.96593   1.97261   1.98215   1.99047   1.99785
 Alpha virt. eigenvalues --    2.01036   2.01204   2.01934   2.02166   2.02587
 Alpha virt. eigenvalues --    2.04383   2.05284   2.05836   2.05938   2.07507
 Alpha virt. eigenvalues --    2.08335   2.09441   2.09482   2.11196   2.11251
 Alpha virt. eigenvalues --    2.11872   2.12194   2.12904   2.13273   2.13868
 Alpha virt. eigenvalues --    2.14305   2.14570   2.15136   2.15763   2.16914
 Alpha virt. eigenvalues --    2.17445   2.18451   2.18900   2.19426   2.20427
 Alpha virt. eigenvalues --    2.21634   2.22158   2.23428   2.24998   2.26028
 Alpha virt. eigenvalues --    2.26456   2.28248   2.29881   2.30812   2.31603
 Alpha virt. eigenvalues --    2.34521   2.35978   2.37100   2.37416   2.38905
 Alpha virt. eigenvalues --    2.39937   2.40669   2.42063   2.43593   2.44089
 Alpha virt. eigenvalues --    2.44681   2.45937   2.46504   2.48058   2.49927
 Alpha virt. eigenvalues --    2.50388   2.52723   2.53444   2.54734   2.57682
 Alpha virt. eigenvalues --    2.59222   2.59816   2.60925   2.63351   2.65135
 Alpha virt. eigenvalues --    2.67753   2.69810   2.69958   2.71025   2.71541
 Alpha virt. eigenvalues --    2.73109   2.73648   2.76101   2.77380   2.79927
 Alpha virt. eigenvalues --    2.80529   2.82831   2.86800   2.88642   2.93531
 Alpha virt. eigenvalues --    2.96119   3.00186   3.04142   3.12354   3.16675
 Alpha virt. eigenvalues --    3.26552  20.55321
          Condensed to atoms (all electrons):
 Mulliken charges:
               1
     1  C   -0.085017
     2  C   -0.475664
     3  C   -0.218444
     4  C   -0.127449
     5  H    0.254327
     6  C   -0.264210
     7  N    0.234293
     8  H    0.250588
     9  H    0.264005
    10  Cl   0.417041
    11  C   -0.100928
    12  O   -0.236959
    13  N    0.201379
    14  C   -0.160818
    15  H    0.235761
    16  H    0.242636
    17  C   -0.483107
    18  C   -0.682452
    19  H    0.249739
    20  Pd  -0.369757
    21  C   -0.409716
    22  C   -0.326304
    23  C    0.629682
    24  C   -0.529954
    25  C   -0.461723
    26  H    0.230417
    27  H    0.241534
    28  C   -0.070568
    29  H    0.223613
    30  H    0.232400
    31  C   -0.284306
    32  C   -0.746032
    33  H    0.250835
    34  C    0.101939
    35  H    0.186966
    36  H    0.199049
    37  C   -0.190388
    38  O   -0.300476
    39  H    0.259908
    40  H    0.222868
    41  H    0.214545
    42  C   -0.648295
    43  H    0.265619
    44  H    0.247829
    45  H    0.239429
    46  O   -0.631557
    47  H    0.529021
    48  H    0.275846
    49  H    0.267425
    50  C   -0.196685
    51  H    0.243986
    52  H    0.218069
    53  H    0.261247
    54  C   -0.269903
    55  H    0.237859
    56  H    0.229436
    57  H    0.226339
    58  C   -0.334904
    59  H    0.246968
    60  H    0.238211
    61  H    0.218147
    62  C   -0.347834
    63  H    0.236375
    64  H    0.207668
    65  H    0.220449
 Sum of Mulliken charges =   1.00000
 Mulliken charges with hydrogens summed into heavy atoms:
               1
     1  C   -0.085017
     2  C   -0.211659
     3  C    0.032143
     4  C    0.126878
     6  C   -0.264210
     7  N    0.234293
    10  Cl   0.417041
    11  C   -0.100928
    12  O   -0.236959
    13  N    0.201379
    14  C    0.317579
    17  C   -0.233368
    18  C   -0.682452
    20  Pd  -0.369757
    21  C    0.101027
    22  C    0.126982
    23  C    1.085761
    24  C   -0.529954
    25  C   -0.461723
    28  C    0.661292
    31  C   -0.284306
    32  C   -0.478607
    34  C    0.487954
    37  C   -0.190388
    38  O   -0.300476
    42  C    0.104582
    46  O   -0.102537
    50  C    0.526618
    54  C    0.423731
    58  C    0.368422
    62  C    0.316659
 APT charges:
               1
     1  C    0.142370
     2  C   -0.175898
     3  C    0.197608
     4  C   -0.165064
     5  H    0.089884
     6  C    0.523530
     7  N   -0.453110
     8  H    0.074282
     9  H    0.103033
    10  Cl  -0.269025
    11  C    0.882057
    12  O   -0.745326
    13  N   -0.684100
    14  C    0.314025
    15  H    0.033352
    16  H    0.004895
    17  C    0.181841
    18  C    0.105140
    19  H    0.002056
    20  Pd   0.157961
    21  C   -0.047001
    22  C    0.085954
    23  C   -0.047347
    24  C    0.355478
    25  C   -0.453294
    26  H   -0.017792
    27  H   -0.002226
    28  C   -0.103780
    29  H    0.019705
    30  H    0.024622
    31  C    0.282505
    32  C    0.230724
    33  H    0.004924
    34  C    0.506754
    35  H   -0.038265
    36  H   -0.054358
    37  C    1.030767
    38  O   -0.818015
    39  H    0.021707
    40  H   -0.012919
    41  H   -0.001914
    42  C   -0.069383
    43  H    0.036741
    44  H    0.031274
    45  H    0.038091
    46  O   -0.717817
    47  H    0.295230
    48  H    0.031196
    49  H    0.017021
    50  C   -0.017091
    51  H    0.033082
    52  H    0.006416
    53  H    0.024567
    54  C   -0.008146
    55  H    0.008528
    56  H   -0.006713
    57  H   -0.002477
    58  C    0.000416
    59  H    0.009913
    60  H    0.000384
    61  H    0.005109
    62  C    0.016917
    63  H   -0.006919
    64  H   -0.018338
    65  H    0.006257
 Sum of APT charges =   1.00000
 APT charges with hydrogens summed into heavy atoms:
               1
     1  C    0.142370
     2  C   -0.072865
     3  C    0.271890
     4  C   -0.075180
     6  C    0.523530
     7  N   -0.453110
    10  Cl  -0.269025
    11  C    0.882057
    12  O   -0.745326
    13  N   -0.684100
    14  C    0.352272
    17  C    0.183897
    18  C    0.105140
    20  Pd   0.157961
    21  C   -0.020370
    22  C    0.055243
    23  C   -0.051487
    24  C    0.355478
    25  C   -0.453294
    28  C   -0.028258
    31  C    0.282505
    32  C    0.247745
    34  C    0.414131
    37  C    1.030767
    38  O   -0.818015
    42  C    0.036723
    46  O   -0.422586
    50  C    0.046974
    54  C   -0.008808
    58  C    0.015822
    62  C   -0.002083
 Electronic spatial extent (au):  <R**2>=          12959.8089
 Charge=              1.0000 electrons
 Dipole moment (field-independent basis, Debye):
    X=             -5.1143    Y=              1.3717    Z=             -0.4501  Tot=              5.3141
 Quadrupole moment (field-independent basis, Debye-Ang):
   XX=           -164.2235   YY=           -154.4502   ZZ=           -190.9952
   XY=             -8.6926   XZ=            -11.1672   YZ=             10.1895
 Traceless Quadrupole moment (field-independent basis, Debye-Ang):
   XX=              5.6661   YY=             15.4395   ZZ=            -21.1056
   XY=             -8.6926   XZ=            -11.1672   YZ=             10.1895
 Octapole moment (field-independent basis, Debye-Ang**2):
  XXX=           -228.9128  YYY=            -10.0090  ZZZ=            -11.9102  XYY=            -38.4046
  XXY=             44.4805  XXZ=            -52.0564  XZZ=            -22.6747  YZZ=            -33.2200
  YYZ=             -2.5269  XYZ=            -34.9533
 Hexadecapole moment (field-independent basis, Debye-Ang**3):
 XXXX=          -7791.7432 YYYY=          -6310.2619 ZZZZ=          -1921.9679 XXXY=           -289.8107
 XXXZ=           -221.9302 YYYX=             25.9221 YYYZ=            243.4608 ZZZX=             46.8136
 ZZZY=             51.2023 XXYY=          -1957.3760 XXZZ=          -1679.4180 YYZZ=          -1271.1588
 XXYZ=            185.1417 YYXZ=             20.9315 ZZXY=             92.3170
 N-N= 3.981940114779D+03 E-N=-1.225043990388D+04  KE= 1.766338498486D+03
  Exact polarizability: 418.348   1.335 349.187   5.984  23.087 265.038
 Approx polarizability: 606.138  15.647 505.874  36.912  56.337 431.152
   1 Symmetry operations used in ECPInt.
 ECPInt:  NShTT=   25878 NPrTT=  135610 LenC2=   23140 LenP2D=   72160.
 LDataN:  DoStor=T MaxTD1= 7 Len=  274
 Calling FoFJK, ICntrl=    100127 FMM=F ISym2X=0 I1Cent= 0 IOpClX= 0 NMat=1 NMatS=1 NMatT=0.
 Defaulting to unpruned grid for atomic number  46.
 Defaulting to unpruned grid for atomic number  46.
 Defaulting to unpruned grid for atomic number  46.
 Defaulting to unpruned grid for atomic number  46.
 Defaulting to unpruned grid for atomic number  46.
 Defaulting to unpruned grid for atomic number  46.
 Defaulting to unpruned grid for atomic number  46.
 Defaulting to unpruned grid for atomic number  46.
 Defaulting to unpruned grid for atomic number  46.
 Defaulting to unpruned grid for atomic number  46.
 Defaulting to unpruned grid for atomic number  46.
 Defaulting to unpruned grid for atomic number  46.
 Defaulting to unpruned grid for atomic number  46.
 Defaulting to unpruned grid for atomic number  46.
 Defaulting to unpruned grid for atomic number  46.
 Defaulting to unpruned grid for atomic number  46.
 Defaulting to unpruned grid for atomic number  46.
 Defaulting to unpruned grid for atomic number  46.
 Defaulting to unpruned grid for atomic number  46.
 Defaulting to unpruned grid for atomic number  46.
 Defaulting to unpruned grid for atomic number  46.
 Defaulting to unpruned grid for atomic number  46.
 Defaulting to unpruned grid for atomic number  46.
 Defaulting to unpruned grid for atomic number  46.
 Defaulting to unpruned grid for atomic number  46.
 Defaulting to unpruned grid for atomic number  46.
 Defaulting to unpruned grid for atomic number  46.
 Defaulting to unpruned grid for atomic number  46.
 Full mass-weighted force constant matrix:
 Low frequencies --- -246.7162   -1.5544   -0.0016   -0.0009    0.0009    8.5825
 Low frequencies ---   14.5699   28.3673   43.2827
 ******    1 imaginary frequencies (negative Signs) ****** 
 Diagonal vibrational polarizability:
      120.0854059      79.0196204      57.2281676
 Harmonic frequencies (cm**-1), IR intensities (KM/Mole), Raman scattering
 activities (A**4/AMU), depolarization ratios for plane and unpolarized
 incident light, reduced masses (AMU), force constants (mDyne/A),
 and normal coordinates:
                           1         2         3         4         5
                           A         A         A         A         A
       Frequencies ---  -246.7088   28.2582   43.2704   44.6516   54.1358
    Reduced masses ---     7.7535    5.3981    6.3204    5.3251    4.5187
   Force constants ---     0.2780    0.0025    0.0070    0.0063    0.0078
    IR Intensities ---     4.3633    0.6117    1.0609    0.9835    1.4939
 Coord Atom Element:
   1     1     6         -0.01299   0.02761   0.00805  -0.00181  -0.03709
   2     1     6         -0.00274  -0.03154   0.04858   0.01123   0.01068
   3     1     6          0.00373   0.04836  -0.02096  -0.06218  -0.03598
   1     2     6         -0.00653   0.03811   0.03690   0.02183  -0.04635
   2     2     6          0.00255  -0.07473   0.11680   0.04491  -0.02854
   3     2     6          0.00253   0.14664  -0.10536  -0.08837   0.02520
   1     3     6         -0.00676   0.02932   0.03620   0.01740  -0.05536
   2     3     6          0.00524  -0.08549   0.15115   0.05953  -0.08520
   3     3     6          0.00066   0.20985  -0.11417  -0.06056   0.11370
   1     4     6         -0.01022   0.00839   0.00833  -0.01142  -0.05843
   2     4     6          0.00701  -0.04500   0.10561   0.02837  -0.09339
   3     4     6          0.00025   0.16727  -0.03241   0.00226   0.12670
   1     5     1         -0.01045  -0.00127   0.00713  -0.01830  -0.06936
   2     5     1          0.01152  -0.04435   0.12129   0.02690  -0.13553
   3     5     1         -0.00050   0.21012  -0.03294   0.03399   0.19239
   1     6     6         -0.01100  -0.00041  -0.01942  -0.03423  -0.04797
   2     6     6          0.00580  -0.00108   0.03579  -0.00608  -0.04367
   3     6     6          0.00146   0.06509   0.05125   0.02648   0.05005
   1     7     7         -0.01511   0.00969  -0.01897  -0.02557  -0.03437
   2     7     7          0.00106   0.00102   0.01319  -0.00831   0.00154
   3     7     7          0.00439   0.00991   0.05340  -0.01435  -0.02251
   1     8     1         -0.00502   0.03663   0.05856   0.03609  -0.06259
   2     8     1          0.00740  -0.12075   0.20720   0.08770  -0.12195
   3     8     1         -0.00047   0.28825  -0.18194  -0.08223   0.17048
   1     9     1         -0.00538   0.05155   0.06182   0.04563  -0.04806
   2     9     1          0.00247  -0.09927   0.14160   0.05681  -0.01930
   3     9     1          0.00165   0.17324  -0.16416  -0.12651   0.01226
   1    10    17         -0.00787  -0.02595  -0.05984  -0.08748  -0.06164
   2    10    17          0.00672   0.05855  -0.02669  -0.05775  -0.04008
   3    10    17         -0.00562   0.00829   0.14921   0.12126   0.05305
   1    11     6         -0.01424   0.02883   0.00969  -0.00087  -0.03756
   2    11     6         -0.01152  -0.01702   0.01517  -0.00741   0.04521
   3    11     6          0.00055  -0.01214  -0.01833  -0.05925  -0.07119
   1    12     8         -0.00673   0.04244   0.03123   0.00372  -0.05758
   2    12     8         -0.01340  -0.01512   0.01667  -0.03603   0.06310
   3    12     8         -0.00949  -0.02659  -0.03813  -0.01511  -0.08412
   1    13     7         -0.01948   0.01371  -0.00685  -0.00216  -0.02044
   2    13     7         -0.02092  -0.00660  -0.01129  -0.00033   0.04099
   3    13     7         -0.00097  -0.04509  -0.00455  -0.07133  -0.04436
   1    14     6         -0.00651   0.04230   0.02682   0.00033  -0.05632
   2    14     6         -0.01903   0.00871  -0.01795  -0.06461   0.06547
   3    14     6         -0.00666  -0.08833  -0.03118   0.02292  -0.03328
   1    15     1         -0.00412   0.01315   0.05166   0.03082  -0.05204
   2    15     1         -0.02155   0.01280  -0.03022  -0.06690   0.05791
   3    15     1         -0.01172  -0.12815  -0.03422   0.07305  -0.05678
   1    16     1         -0.01007   0.09486   0.01539  -0.03711  -0.08705
   2    16     1         -0.01447   0.03358  -0.02148  -0.10527   0.10503
   3    16     1         -0.00445  -0.09821  -0.02847   0.02255  -0.01044
   1    17     6         -0.00791   0.01492   0.00237   0.00807  -0.01450
   2    17     6         -0.02006  -0.00584  -0.02688  -0.02833   0.02373
   3    17     6         -0.00513  -0.08066  -0.02502  -0.01015   0.01354
   1    18     6         -0.00616  -0.01224  -0.00827   0.07025   0.10638
   2    18     6         -0.00769  -0.02204  -0.03389   0.01443  -0.03479
   3    18     6         -0.00054  -0.09629  -0.03277   0.02988   0.03873
   1    19     1         -0.01415   0.02099  -0.00183  -0.02053  -0.05628
   2    19     1         -0.02205  -0.00323  -0.03264  -0.05660   0.01935
   3    19     1         -0.00403  -0.08500  -0.02988  -0.01862   0.08795
   1    20    46          0.06113   0.00950  -0.02279  -0.00626  -0.00531
   2    20    46         -0.04086  -0.00418  -0.01000  -0.01474   0.02936
   3    20    46          0.01829  -0.04161   0.04551  -0.04816  -0.01805
   1    21     6          0.02786   0.03812  -0.00379   0.03439  -0.02147
   2    21     6         -0.00960   0.05182   0.04818   0.11992  -0.08943
   3    21     6          0.00513   0.14941   0.02197   0.02040   0.00354
   1    22     6         -0.00947   0.08716   0.01267   0.07811  -0.05564
   2    22     6          0.03889   0.01766   0.04041   0.09975  -0.05301
   3    22     6          0.00856   0.11398   0.00586  -0.02423   0.01135
   1    23     6          0.05839   0.07394  -0.00080   0.04949  -0.01600
   2    23     6          0.12666  -0.01817   0.02046   0.05548   0.00221
   3    23     6         -0.07990   0.04723   0.00507  -0.03085  -0.00799
   1    24     6          0.17884   0.00908  -0.01022   0.01032  -0.00420
   2    24     6          0.43671  -0.00335   0.01152   0.02219   0.03138
   3    24     6         -0.17901   0.01715   0.00484  -0.03331  -0.01480
   1    25     6          0.07649  -0.04324  -0.02319  -0.02352   0.00689
   2    25     6          0.09102   0.02269   0.00047   0.02340   0.02221
   3    25     6         -0.02243   0.05298   0.01914  -0.00479  -0.02136
   1    26     1         -0.01486   0.13805   0.02393   0.11219  -0.06737
   2    26     1         -0.02012   0.01377   0.05520   0.13607  -0.08278
   3    26     1          0.03001   0.13444   0.00406  -0.02621   0.01896
   1    27     1          0.10491   0.07548  -0.01610   0.02524   0.03127
   2    27     1         -0.01116  -0.02707   0.02092   0.07127  -0.01167
   3    27     1         -0.24968   0.03638   0.00207  -0.01793  -0.00925
   1    28     6         -0.15544  -0.01548  -0.02277   0.06860  -0.00715
   2    28     6          0.01774  -0.00287  -0.12312  -0.00923   0.00649
   3    28     6          0.01767  -0.06796  -0.01944   0.06297  -0.01024
   1    29     1         -0.10933  -0.00934   0.00134   0.02493  -0.02136
   2    29     1          0.08560  -0.00077  -0.04236  -0.05896  -0.01741
   3    29     1          0.01547  -0.07714   0.03299   0.09067  -0.00787
   1    30     1         -0.10634  -0.02690  -0.02512   0.10545  -0.01797
   2    30     1          0.01221  -0.00740  -0.24782   0.04731   0.01706
   3    30     1          0.00200  -0.06073   0.05702   0.01503  -0.01264
   1    31     6         -0.15976  -0.00081  -0.00725   0.01410  -0.00278
   2    31     6         -0.10842   0.00184  -0.03566  -0.02248   0.02390
   3    31     6          0.04238  -0.05310  -0.01630   0.00644  -0.00875
   1    32     6         -0.33422  -0.01100  -0.00405   0.03003  -0.00422
   2    32     6         -0.17266  -0.00837  -0.02813  -0.03187   0.03517
   3    32     6          0.08273  -0.03428  -0.02607  -0.05881   0.00257
   1    33     1          0.04346   0.03897  -0.02003   0.01036   0.03145
   2    33     1         -0.00989   0.06313   0.07225   0.16507  -0.13420
   3    33     1          0.01366   0.16133   0.03744   0.05323  -0.01256
   1    34     6         -0.07184   0.01711   0.03003  -0.05355   0.01492
   2    34     6         -0.03300   0.02784   0.04613  -0.03978   0.02705
   3    34     6         -0.00971  -0.06982  -0.06777   0.03851  -0.01706
   1    35     1         -0.06038   0.04886  -0.07222  -0.00857  -0.01448
   2    35     1         -0.03904   0.07462  -0.08600   0.03553  -0.01858
   3    35     1         -0.04908  -0.10086   0.05171   0.01391   0.00602
   1    36     1         -0.02991   0.05410  -0.05801  -0.03182  -0.00734
   2    36     1          0.00645  -0.00354   0.29464  -0.15960   0.08973
   3    36     1          0.04037  -0.04261  -0.09132   0.03013  -0.02296
   1    37     6          0.06197  -0.02963  -0.02028  -0.01398   0.00409
   2    37     6         -0.02181   0.03950   0.00958   0.05040  -0.02413
   3    37     6          0.02930   0.12891   0.04005   0.04530  -0.02766
   1    38     8          0.07055  -0.07397  -0.03176  -0.04640   0.02449
   2    38     8         -0.02858   0.04589  -0.01334   0.01845  -0.01602
   3    38     8          0.02368   0.17103   0.07187   0.10692  -0.05663
   1    39     1          0.00999   0.04440   0.00872   0.05600  -0.05854
   2    39     1         -0.04791   0.07901   0.05874   0.14424  -0.12604
   3    39     1         -0.01736   0.18074   0.00762   0.00637   0.03620
   1    40     1         -0.08506   0.08210   0.02253   0.09763  -0.09758
   2    40     1          0.08117   0.01961   0.03027   0.07537  -0.03339
   3    40     1          0.03693   0.11480  -0.00452  -0.05073   0.02248
   1    41     1         -0.01820   0.10984   0.01151   0.07840  -0.03719
   2    41     1          0.11917  -0.04929   0.00406   0.03375   0.03430
   3    41     1          0.03910   0.02843   0.00457  -0.04986  -0.01185
   1    42     6         -0.05940  -0.03774   0.01212   0.08510  -0.00734
   2    42     6          0.01867  -0.01586  -0.06494  -0.08015   0.05643
   3    42     6          0.04527  -0.03128  -0.04017  -0.08505   0.00927
   1    43     1          0.15132  -0.05093   0.02895   0.10982  -0.01347
   2    43     1         -0.10349  -0.00930  -0.07870  -0.10040   0.06342
   3    43     1          0.15041  -0.04185  -0.05934  -0.10893   0.02726
   1    44     1          0.00210  -0.04284   0.01779   0.09544  -0.00892
   2    44     1          0.24115  -0.02759  -0.05355  -0.06156   0.05123
   3    44     1         -0.05321  -0.01424  -0.05958  -0.12537   0.01173
   1    45     1         -0.15697  -0.04166   0.01253   0.08561   0.00039
   2    45     1         -0.01384  -0.01418  -0.09172  -0.11930   0.07210
   3    45     1          0.03402  -0.03453  -0.01471  -0.04790  -0.00224
   1    46     8         -0.05011  -0.05505   0.30242  -0.19287   0.09752
   2    46     8         -0.04083   0.03395  -0.01368  -0.01171   0.01257
   3    46     8         -0.05427  -0.08023  -0.25846   0.12257  -0.05306
   1    47     1         -0.06818  -0.03820   0.31163  -0.21999   0.10134
   2    47     1         -0.02635   0.05614   0.01135  -0.01326   0.00841
   3    47     1         -0.05166  -0.10335  -0.27845   0.14042  -0.05308
   1    48     1         -0.23264  -0.02025  -0.05989   0.12148   0.01745
   2    48     1          0.05437  -0.00421  -0.15619  -0.00278  -0.00066
   3    48     1          0.04186  -0.07770  -0.15290   0.13499  -0.00521
   1    49     1          0.03439   0.00056   0.01594   0.00983   0.00526
   2    49     1          0.20995  -0.00377   0.00917   0.00166   0.03117
   3    49     1         -0.00374  -0.03095  -0.04525  -0.10261   0.01282
   1    50     6          0.03296  -0.11771  -0.04254  -0.07412   0.02523
   2    50     6          0.08408   0.04395  -0.01758  -0.00482   0.04012
   3    50     6         -0.02374   0.02399   0.02148  -0.00714  -0.02323
   1    51     1          0.05555  -0.14029  -0.06472  -0.08966   0.05271
   2    51     1          0.06114   0.05540  -0.00757  -0.00216   0.02655
   3    51     1          0.04468   0.02458   0.03015   0.02272  -0.02389
   1    52     1          0.02889  -0.12512  -0.04614  -0.07923   0.02866
   2    52     1          0.10629   0.03212  -0.04121  -0.01745   0.06984
   3    52     1         -0.06643  -0.03154   0.01709  -0.03891  -0.02391
   1    53     1         -0.03782  -0.14660  -0.03127  -0.09067   0.00551
   2    53     1          0.03315   0.06726  -0.01569  -0.01288   0.03215
   3    53     1         -0.03333   0.05567   0.01774  -0.00622  -0.02050
   1    54     6         -0.00439  -0.03663   0.00336   0.13329   0.16422
   2    54     6         -0.00451  -0.04371  -0.01880   0.07897  -0.04525
   3    54     6          0.00264  -0.09877  -0.02228   0.05567  -0.07299
   1    55     1         -0.00283  -0.04764  -0.00395   0.15904   0.24621
   2    55     1         -0.00217  -0.04027  -0.02950   0.08971  -0.07453
   3    55     1          0.00411  -0.10187  -0.02896   0.06960  -0.05082
   1    56     1         -0.00471  -0.02998  -0.00538   0.11713   0.17665
   2    56     1         -0.00292  -0.06539  -0.00072   0.13380  -0.04791
   3    56     1         -0.00011  -0.09155  -0.00747   0.03572  -0.14450
   1    57     1         -0.00443  -0.05199   0.02881   0.16930   0.11071
   2    57     1         -0.00575  -0.04208  -0.01525   0.06172  -0.02776
   3    57     1          0.00432  -0.10179  -0.02558   0.08107  -0.09985
   1    58     6         -0.00634  -0.01630   0.00278   0.08804   0.09848
   2    58     6         -0.00630   0.00019  -0.05711  -0.05859  -0.04987
   3    58     6          0.00541  -0.12687  -0.05002   0.10080   0.14337
   1    59     1         -0.00665  -0.00078  -0.00461   0.03999   0.04902
   2    59     1         -0.00610   0.01766  -0.06864  -0.11069  -0.04567
   3    59     1          0.00616  -0.11855  -0.05939   0.08096   0.22879
   1    60     1         -0.00515  -0.03281  -0.00420   0.13150   0.18667
   2    60     1         -0.00561  -0.01622  -0.06225  -0.02583  -0.09352
   3    60     1          0.00613  -0.13927  -0.05469   0.13018   0.16791
   1    61     1         -0.00785  -0.01806   0.02547   0.10732   0.05655
[...]
 -0.00011836,-0.00011788,-0.00003642,-0.00002793,-0.00020334,0.00001582
 ,-0.00003953,-0.00002288,-0.00007272,0.00003390,0.00043974,-0.00001542
 ,-0.00003527,0.00000633,-0.00000496,0.00000562,0.00000321,0.00000007,-
 0.00000050,-0.00000816,0.00007771,0.00008250,0.00000362,0.00002475,0.0
 0002406,-0.00003057,-0.00008754,-0.00009033,0.00019112,0.00002038,0.00
 002963,0.00003585,-0.00001472,-0.00000542,-0.00000020,0.00000469,-0.00
 000354,0.00001361,-0.00018840,0.00016273,-0.00020733,0.00007729,0.0000
 0492,0.00006706,-0.00002340,-0.00005830,0.00004145,0.00004943,-0.00003
 853,-0.00000052,-0.00003893,-0.00015873,0.00009272,-0.00002008,-0.0000
 2249,0.00000383,-0.00000350,-0.00000113,0.00000948,0.00000043,0.000009
 40,-0.00000547,0.00000417,0.00000389,0.00000179,-0.00003072,-0.0000508
 3,-0.00002795,0.00000655,0.00000706,0.00001014,-0.00000925,0.00000218,
 0.00000714,-0.00000355,0.00000551,0.00002265,0.00000330,-0.00002932,0.
 00004566,0.00000916,0.00000597,0.00001097,-0.00000761,-0.00000301,0.00
 000189,-0.00000124,0.00001072,0.00001925,-0.00006913,0.00133770,-0.000
 80995,0.00005635,-0.00064959,0.00010255,0.00006486,-0.00003923,0.00011
 611,-0.00021192,0.00027907,0.00011360,0.00103963,0.00094402,-0.0003462
 5,-0.00010437,-0.00002619,0.00011923,-0.00030143,-0.00014674,0.0000648
 3,0.00021630,0.00008962,0.00019119,-0.03060487,-0.07541559,0.07975211,
 0.03289059,0.08184459,-0.00006829,-0.00000347,0.00000284,0.00009120,-0
 .00000509,-0.00000899,-0.00005079,-0.00001511,-0.00000947,0.00001198,0
 .00005955,0.00003875,-0.00000165,0.00000171,0.00000193,0.00002363,-0.0
 0008864,-0.00007293,0.00005273,0.00002131,0.00001008,0.00000619,0.0000
 0060,-0.00000319,-0.00001859,0.00001732,0.00000168,0.00001387,0.000041
 97,0.00003561,-0.00018017,0.00005743,0.00005781,0.00052556,-0.00021656
 ,-0.00015916,-0.00012911,0.00008945,0.00035373,0.00018444,0.00110850,-
 0.00068552,-0.00000750,-0.00005919,0.00006762,0.00006615,-0.00027689,-
 0.00025156,-0.00052092,-0.00462982,-0.00165475,0.00681117,0.00765876,-
 0.01957607,-0.00012182,-0.00007403,0.00042222,-0.00003927,-0.00013688,
 -0.00005453,-0.00005302,-0.00000714,0.00002990,0.00001113,0.00001146,0
 .00000067,-0.00001275,-0.00014995,0.00008697,0.00001223,-0.00004750,0.
 00001456,-0.00001136,-0.00001071,-0.00001675,-0.00000817,0.00002042,0.
 00001140,0.00000017,0.00015970,-0.00010358,0.00000829,0.00002151,0.000
 00120,-0.00000005,-0.00000730,-0.00000141,-0.00000298,-0.00000619,0.00
 000011,-0.00001178,-0.00003903,0.00003827,-0.00001065,0.00001978,0.000
 01694,0.00003877,0.00003158,-0.00006128,-0.00000605,-0.00001598,-0.000
 04142,0.00000343,-0.00000127,0.00000106,-0.00000384,0.00000520,-0.0000
 0027,0.00007308,-0.00009620,-0.00003022,-0.00004312,0.00005878,0.00002
 458,0.00000959,0.00002336,-0.00000940,-0.00000232,-0.00000108,0.000004
 97,0.00000588,0.00003763,-0.00002351,0.00000770,0.00001524,-0.00000575
 ,0.00000347,0.00000126,-0.00000167,-0.00000137,-0.00000770,-0.00000090
 ,-0.00000460,-0.00000408,0.00000282,0.00001249,0.00004096,0.00002338,0
 .00000046,-0.00000163,-0.00000374,0.00000560,-0.00000076,-0.00000918,0
 .00000621,0.00000651,-0.00000659,-0.00002588,-0.00000280,0.00000773,0.
 00001871,-0.00000015,0.00003137,-0.00000194,-0.00000784,0.00000725,0.0
 0000251,0.00001885,0.00000155,-0.00054642,0.00134421,0.00068653,0.0001
 9651,-0.00040112,0.00052983,0.00001119,-0.00009890,-0.00004775,-0.0002
 7241,-0.00003026,0.00031503,0.00088130,0.00127068,0.00066341,-0.000036
 82,-0.00009360,-0.00010650,-0.00075380,-0.00056045,0.00001849,-0.00006
 425,-0.00005861,0.00045075,0.07966782,0.07808851,-0.25358400,-0.086948
 04,-0.08269118,0.27485858,0.00006813,-0.00000278,-0.00000822,-0.000015
 71,-0.00001414,-0.00000832,0.00002264,0.00000201,0.00000218,0.00001024
 ,-0.00002636,-0.00002957,0.00000460,0.00000171,-0.00000795,-0.00003450
 ,0.00002634,0.00000805,0.00003472,-0.00010051,0.00005829,-0.00000249,0
 .00000221,0.00000188,0.00000817,-0.00000245,-0.00001107,0.00000100,-0.
 00002276,-0.00000453,-0.00006894,-0.00001284,-0.00009329,0.00009404,-0
 .00004777,-0.00006957,-0.00028407,-0.00024540,0.00055745,0.00009257,-0
 .00005309,0.00014257,0.00000706,-0.00007428,-0.00007806,-0.00001937,0.
 00002680,0.00005244,0.00032218,-0.00000027,-0.00085786,-0.00247319,0.0
 0111477,-0.00033319,-0.00006250,0.00019393,0.00019894,-0.00008493,0.00
 016844,-0.00001733,0.00014233,0.00002678,-0.00006027,0.00018121,0.0000
 6938,-0.00011166,0.00042037,-0.00070970,0.00084183,-0.00054354,0.00063
 082,0.00049390,0.00010928,-0.00019508,0.00038936,-0.00000860,-0.000019
 87,0.00002267,-0.00066726,-0.00066503,-0.00105938,0.00002064,0.0000047
 7,-0.00000510,0.00001822,-0.00000328,-0.00000692,0.00000134,0.00000633
 ,0.00000353,-0.00018480,-0.00005166,-0.00004209,-0.00002154,0.00008703
 ,0.00001407,-0.00029742,0.00061366,-0.00026252,-0.00005608,-0.00003105
 ,0.00000865,0.00003766,0.00001511,-0.00000660,-0.00000523,0.00001751,-
 0.00003234,0.00052349,-0.00019708,0.00041183,-0.00027085,-0.00024389,-
 0.00007040,-0.00004614,0.00003108,-0.00001714,-0.00015990,0.00009177,-
 0.00006775,0.00005576,0.00042138,-0.00026800,0.00004316,0.00001350,-0.
 00002565,0.00001113,0.00000545,-0.00001060,0.00000940,-0.00001482,0.00
 001568,-0.00000712,-0.00000563,-0.00001478,0.00005993,0.00003031,0.000
 01209,-0.00002625,-0.00001076,-0.00000624,0.00000313,-0.00000438,-0.00
 000067,-0.00001994,-0.00006256,-0.00002762,-0.00006369,0.00002349,-0.0
 0011037,-0.00000222,-0.00002561,-0.00002496,0.00002366,0.00000712,-0.0
 0001776,0.00001954,-0.00000959,-0.00003788,0.00065345,0.00012304,0.001
 06005,-0.00001533,-0.00004423,-0.00018071,0.00031573,-0.00024137,0.000
 00054,0.00027136,0.00033349,-0.00018527,0.00049277,-0.00104775,-0.0000
 0651,0.00021233,-0.00042627,-0.00038163,-0.00002767,-0.00003799,0.0001
 7295,0.00007157,0.00003740,0.00023925,-0.14865552,0.11633454,-0.052883
 65,0.00701004,-0.00876416,0.00329953,0.15778667,-0.00003672,-0.0000215
 4,0.00002711,0.00000792,0.00000792,-0.00001176,-0.00002031,0.00000016,
 -0.00000395,-0.00000372,0.00002502,0.00001574,-0.00000196,-0.00000125,
 0.00000363,0.00002010,-0.00004035,-0.00003091,0.00000726,0.00002697,0.
 00000635,-0.00000050,-0.00000215,0.00000115,-0.00000797,-0.00000120,0.
 00001359,0.00000539,0.00002249,0.00001834,0.00004026,-0.00021572,-0.00
 002564,-0.00017478,0.00022405,0.00008917,0.00022819,-0.00009693,-0.000
 14327,-0.00026009,0.00001428,-0.00010386,0.00006122,0.00003892,0.00011
 840,0.00003709,0.00000206,-0.00005271,-0.00046805,0.00097120,0.0016133
 6,0.01515757,-0.01851281,0.00937761,-0.00016962,0.00013604,-0.00060580
 ,0.00003927,0.00002261,-0.00007701,-0.00059880,0.00008520,0.00009156,0
 .00004995,-0.00006624,-0.00006985,-0.00040780,-0.00026884,0.00012700,-
 0.00002170,-0.00035162,0.00014262,-0.00023345,0.00000795,-0.00019488,0
 .00001877,-0.00000899,-0.00002170,-0.00072783,-0.00274529,0.00028346,-
 0.00000243,0.00000060,0.00000436,-0.00000409,0.00000016,0.00000169,-0.
 00000191,-0.00000183,0.00000030,0.00008417,0.00006292,-0.00002515,0.00
 003895,-0.00004942,-0.00004506,0.00052579,-0.00025764,0.00017855,0.000
 01878,-0.00000222,0.00001650,-0.00000481,-0.00000305,-0.00000273,-0.00
 000235,0.00000306,0.00000095,0.00028784,0.00029057,0.00041292,-0.00019
 301,-0.00023655,-0.00016182,0.00009527,0.00007473,-0.00011172,0.000004
 74,-0.00000767,-0.00001638,-0.00000509,-0.00008511,0.00003908,-0.00000
 713,-0.00000821,-0.00000836,-0.00000046,0.00000185,0.00000116,-0.00000
 002,0.00000199,-0.00000071,0.00000259,0.00000038,0.00000323,-0.0000154
 1,-0.00000698,-0.00000755,0.00000607,0.00000027,0.00000214,-0.00000080
 ,0.00000242,-0.00000021,-0.00003222,-0.00002053,0.00004169,-0.00000957
 ,-0.00003193,0.00005162,0.00001906,-0.00000486,-0.00000957,-0.00000798
 ,-0.00000633,0.00000233,0.00000584,0.00000850,0.00000563,-0.00080974,-
 0.00354053,-0.00487822,-0.00026220,0.00040301,-0.00015003,0.00008520,0
 .00026026,0.00000385,0.00125175,-0.00122031,0.00040181,0.00126297,0.00
 104083,0.00104269,-0.00068711,0.00011535,-0.00049662,-0.00004994,-0.00
 019851,0.00004802,-0.00017768,0.00039836,-0.00006541,0.11562241,-0.174
 50196,0.05990321,0.00629855,-0.00694027,0.00198442,-0.12751449,0.19551
 006,0.00004646,-0.00001024,0.00001711,-0.00003459,0.00000423,-0.000006
 46,0.00001840,0.00000380,0.00000136,-0.00000338,-0.00002005,-0.0000174
 9,0.00000200,0.,-0.00000181,-0.00000518,0.00003046,0.00001818,-0.00000
 713,-0.00003288,0.00001297,-0.00000282,0.00000012,0.00000084,0.0000048
 8,-0.00000718,0.00000132,-0.00000545,-0.00001567,-0.00000829,0.0000170
 8,-0.00014516,-0.00002279,-0.00014693,0.00021211,0.00007500,-0.0003528
 2,0.00024236,0.00010087,-0.00013803,-0.00012568,0.00021126,0.00003143,
 -0.00000343,0.00003406,0.00000032,0.00003552,0.00003162,0.00090398,-0.
 00075396,0.00110927,0.01333987,-0.01469726,0.00595079,0.00028020,0.000
 12476,-0.00085271,0.00001899,0.00007160,-0.00000371,0.00024632,-0.0002
 1102,0.00001104,-0.00000805,0.00001867,0.00001401,0.00026364,-0.000245
 89,0.00022591,0.00001032,0.00053415,-0.00009649,0.00019633,0.00015624,
 -0.00017161,0.00000717,-0.00008333,-0.00001805,-0.00054954,0.00005384,
 -0.00049225,-0.00000134,-0.00001926,0.00000088,0.00000499,0.00000235,-
 0.00000176,0.00000111,0.00000432,-0.00000235,-0.00003033,0.00001553,-0
 .00001647,0.00000296,0.00006215,-0.00001513,-0.00022994,0.00033808,0.0
 0012128,-0.00001347,0.00000825,0.00002589,0.00001012,0.00000389,-0.000
 00423,-0.00000428,0.00000412,-0.00001036,-0.00008814,0.00101694,-0.000
 75763,-0.00004908,-0.00028216,0.00006177,-0.00003278,-0.00004434,-0.00
 002839,-0.00002568,0.00002886,-0.00003279,0.00001632,0.00009775,-0.000
 10510,0.00000579,-0.00001195,-0.00000731,0.00000170,-0.00000011,0.0000
 0134,0.00000491,-0.00000038,0.00000912,0.00000356,0.00000135,-0.000007
 59,0.00001101,-0.00002400,-0.00001091,-0.00000967,0.00000174,0.0000014
 5,-0.00000452,-0.00000084,0.00000398,-0.00000886,-0.00003217,-0.000012
 99,-0.00000806,0.00000612,-0.00004622,-0.00000167,-0.00001636,-0.00004
 017,0.00000700,0.00000031,-0.00000353,0.00000488,-0.00001046,-0.000009
 52,-0.00009178,-0.00266712,-0.00250987,-0.00015753,-0.00028356,0.00020
 263,-0.00000243,0.00009199,-0.00020087,0.00056023,-0.00104224,0.000654
 13,0.00076227,0.00023806,0.00067379,-0.00033061,-0.00011794,-0.0000081
 1,-0.00017962,0.00010744,-0.00005535,0.00023989,0.00019003,0.00001359,
 -0.05314556,0.06033024,-0.07302682,-0.01840589,0.01864410,-0.00761425,
 0.05800876,-0.06414278,0.07884478,0.00000250,-0.00002841,0.00005578,0.
 00002254,0.00000720,-0.00001236,-0.00001954,-0.00000810,-0.00000907,-0
 .00000252,0.00002976,0.00003073,0.00000016,-0.00000203,0.00000252,-0.0
 0001018,-0.00006812,-0.00005804,-0.00002431,0.00005309,0.00001152,0.00
 000130,0.00000054,-0.00000041,-0.00000757,0.00000224,0.00000611,0.0000
 1690,0.00003974,0.00002219,0.00026062,-0.00012888,0.00011459,0.0002302
 7,0.00044812,0.00008229,-0.00084555,0.00048879,0.00264933,-0.00022980,
 0.00007888,-0.00017321,-0.00001397,0.00006514,0.00004995,0.00002749,-0
 .00004760,-0.00006725,-0.00050357,-0.00089691,-0.00009073,0.00124307,0
 .00161993,-0.00014912,-0.00006429,-0.00002001,0.00008217,-0.00015786,-
 0.00023807,0.00001185,-0.00010776,-0.00015411,0.00005181,-0.00023298,-
 0.00012470,0.00017518,0.00024100,-0.00026979,-0.00011514,0.00020380,-0
 .00017180,-0.00033273,0.00019345,-0.00008370,-0.00000368,-0.00000715,0
 .00002097,-0.00000488,-0.00038022,0.00015625,0.00003320,0.00000138,0.0
 0000096,0.00000474,-0.00000913,-0.00000158,0.00000046,-0.00000069,-0.0
 0000242,-0.00000054,0.00001007,-0.00004807,0.00000032,-0.00001570,0.00
 005620,0.00001646,0.00005121,0.00004498,-0.00012390,0.00005475,0.00004
 055,-0.00004761,-0.00001592,-0.00000859,0.00000596,-0.00001021,-0.0000
 0094,0.00001783,-0.00060097,-0.00012247,-0.00004443,0.00028893,0.00021
 969,0.00010393,0.00005219,0.00004525,-0.00000518,0.00016637,-0.0000642
 8,0.00005635,-0.00000758,-0.00004576,0.00001843,-0.00002280,-0.0000073
 4,0.00001656,-0.00000473,-0.00000426,0.00000495,-0.00000194,0.00000363
 ,-0.00000643,-0.00000133,0.00000182,0.00000773,-0.00004125,-0.00004504
 ,0.00001921,0.00001824,0.00001229,-0.00000177,0.00000068,-0.00000153,-
 0.00000472,0.00002560,0.00005534,-0.00000789,0.00005355,0.00001471,0.0
 0006237,-0.00001196,0.00002113,0.00004031,-0.00000183,-0.00000197,0.00
 000286,-0.00001526,0.00000637,0.00002384,0.00063818,0.00046787,0.00010
 047,-0.00008911,-0.00010543,-0.00008743,0.00017877,0.00018733,0.000084
 92,0.00019008,-0.00012800,-0.00000671,0.00088300,-0.00064468,-0.000589
 20,0.00018784,0.00009100,0.00023129,0.00015310,0.00030237,0.00001849,0
 .00005499,-0.00008744,0.00006760,-0.26541444,-0.09476685,-0.03445524,-
 0.00809324,-0.00238660,-0.00210321,-0.01503473,-0.00836123,-0.00095771
 ,0.28654807,0.00005009,-0.00004991,-0.00000119,-0.00001450,-0.00000772
 ,-0.00001295,0.00001930,-0.00000174,-0.00001041,-0.00000221,-0.0000069
 7,-0.00001187,0.00000243,0.00000154,-0.00000451,0.00001502,0.00000974,
 -0.00000444,0.00001830,-0.00005638,0.00007204,-0.00000217,0.00000075,-
 0.00000001,0.00000229,-0.00000316,-0.00000382,0.00000100,-0.00000943,-
 0.00000093,0.00025524,-0.00027997,-0.00022748,0.00024106,0.00040302,0.
 00006043,-0.00031648,0.00024836,0.00102199,-0.00023019,-0.00007589,0.0
 0005561,-0.00007618,0.00004972,0.00005441,-0.00000040,-0.00000739,-0.0
 0000422,-0.00051779,0.00018001,0.00058422,-0.02169171,-0.00931362,-0.0
 0167202,0.00008970,-0.00003299,-0.00005188,-0.00000971,0.00009642,0.00
 004648,0.00005121,0.00004046,0.00001539,0.00015795,0.00008092,-0.00010
 939,0.00011025,-0.00051187,0.00023727,-0.00028691,0.00037903,0.0001158
 6,0.00001565,0.00005930,0.00001754,-0.00000221,-0.00000264,0.00000586,
 0.00029759,-0.00096027,0.00002730,0.00000312,0.00000699,-0.00000749,0.
 00000709,0.00000057,-0.00000206,0.00000020,0.00000431,0.00000078,-0.00
 004017,-0.00000510,-0.00005339,0.00001573,0.00002146,-0.00000989,-0.00
 004666,0.00001072,0.00005761,-0.00004216,-0.00002458,0.00002331,0.0000
 1677,0.00000853,-0.00000389,0.00000753,0.00000360,-0.00002259,0.000300
 90,0.00001160,-0.00012874,-0.00010949,-0.00002525,-0.00001239,-0.00003
 129,-0.00004213,0.00001424,-0.00008835,0.00004217,-0.00002202,-0.00002
 497,0.00002941,-0.00002607,0.00002051,0.00000233,-0.00001580,0.0000016
 5,0.00000245,-0.00000449,0.00000647,-0.00000660,0.00000354,-0.00000399
 ,-0.00000108,-0.00000392,0.00002417,0.00001056,-0.00000472,-0.00001315
 ,-0.00000406,-0.00000081,0.00000616,-0.00000211,-0.00000300,-0.0000110
 0,-0.00002273,-0.00000161,-0.00004891,-0.00001371,-0.00003408,0.000007
 34,-0.00001630,-0.00001487,0.00000944,0.00000245,-0.00000069,0.0000104
 1,-0.00000514,-0.00001411,-0.00134859,0.00114294,0.00016842,-0.0000626
 2,-0.00012236,0.00004507,0.00063855,-0.00077757,-0.00006743,0.00022125
 ,0.00028019,0.00009327,0.00127639,-0.00370722,-0.00347584,-0.00013422,
 0.00020571,-0.00016842,0.00044897,0.00011624,0.00003150,-0.00155009,-0
 .00027788,-0.00057396,-0.09393618,-0.08926401,-0.01478300,-0.00867071,
 -0.00440342,-0.00236952,0.02046874,0.00969663,0.00236591,0.10449459,0.
 09689305,0.00007600,-0.00005366,-0.00000946,-0.00008554,0.00000519,-0.
 00000583,0.00004960,0.00001244,0.00001059,-0.00002907,-0.00005398,-0.0
 0004251,-0.00000257,0.00000054,0.00000275,0.00005368,0.00013253,0.0001
 2140,-0.00005888,-0.00000030,0.00000854,-0.00000527,-0.00000233,0.0000
 0039,0.00000640,-0.00001041,0.00000405,-0.00003046,-0.00005788,-0.0000
 5425,0.00040572,-0.00067711,-0.00046567,0.00029685,0.00069448,0.000234
 70,0.00135197,0.00032258,-0.00218783,-0.00021887,-0.00014183,0.0001739
 1,-0.00005866,0.00007587,0.00007979,0.00002109,0.00001842,0.00002007,-
 0.00128263,-0.00019500,0.00069001,-0.02000777,-0.00736586,-0.00352563,
 -0.00037186,-0.00010568,-0.00023698,0.00040725,0.00018369,-0.00037523,
 -0.00001860,-0.00003205,0.00000987,-0.00008869,-0.00003417,0.00001129,
 0.00000552,-0.00004928,-0.00000197,0.00010159,-0.00016370,-0.00002422,
 0.00021542,-0.00013920,-0.00011121,0.00002716,-0.00002067,-0.00000591,
 -0.00007987,0.00027360,0.00043483,-0.00002877,-0.00010715,0.00001487,-
 0.00000207,0.00001284,0.00000235,0.00000266,0.00000553,-0.00001822,0.0
 0002791,0.00014572,0.00002702,-0.00008420,0.00011835,-0.00003003,0.000
 02851,0.00002409,-0.00006563,0.00000685,0.00002407,0.00011398,-0.00001
 929,-0.00000407,-0.00000146,0.00001403,-0.00002861,0.00000316,-0.00051
 277,-0.00005775,0.00005299,0.00024000,0.00011729,0.00006280,0.00001935
 ,0.00001604,-0.00001291,0.00004505,-0.00001021,0.00001067,-0.00002587,
 -0.00009089,0.00003752,-0.00001684,-0.00002659,0.00000260,-0.00000063,
 -0.00000274,0.00000796,0.00000587,0.00000914,0.00000139,0.00000427,0.0
 0000486,-0.00000626,-0.00003087,-0.00006416,-0.00006370,0.00000218,0.0
 0000092,0.00001415,-0.00002428,0.00000188,0.00001751,0.00001059,0.0000
 0469,0.00001136,0.00001457,0.00000480,0.00003440,-0.00002406,0.0000170
 2,0.00000670,0.00001195,0.00000815,-0.00001083,-0.00000113,-0.00000058
 ,0.00001452,-0.00020954,0.00108238,0.00025396,0.00017955,0.00001519,-0
 .00002576,0.00018415,-0.00004083,0.00032777,0.00002769,0.00015037,-0.0
 0015138,0.00108566,-0.00323335,-0.00279349,0.00031719,0.00009593,0.000
 01696,-0.00006358,-0.00014932,0.00025305,-0.00123953,-0.00080581,0.000
 09655,-0.03268690,-0.01439117,-0.05149166,0.02546157,0.01032745,0.0053
 2473,-0.00857304,-0.00461158,-0.00221088,0.03517429,0.01882188,0.05541
 775\\-0.00000130,-0.00000003,-0.00001126,-0.00000340,0.00000229,-0.000
 01530,-0.00000443,0.00000074,-0.00001722,-0.00000102,-0.00000196,-0.00
 001399,-0.00000133,-0.00000333,-0.00001572,-0.00000117,-0.00000357,-0.
 00001008,-0.00000021,-0.00000127,-0.00000747,-0.00000393,0.00000094,-0
 .00002095,-0.00000455,0.00000410,-0.00001717,0.00000187,-0.00000679,-0
 .00000698,-0.00000386,0.00000187,-0.00000844,-0.00000373,0.00000400,-0
 .00001143,-0.00000083,-0.00000004,-0.00000468,-0.00000375,0.00000493,-
 0.00000907,-0.00000352,0.00000469,-0.00001150,-0.00000507,0.00000842,-
 0.00000657,-0.00000063,0.00000033,-0.00000436,0.00000015,-0.00000298,-
 0.00000506,-0.00000144,0.00000306,-0.00000173,-0.00000074,0.00000242,-
 0.00000023,0.00000178,0.00000055,0.00001327,0.00000239,-0.00000247,0.0
 0001349,0.00000391,-0.00000338,0.00000902,0.00000074,-0.00000227,0.000
 00787,-0.00000008,0.00000501,0.00000655,0.00000520,-0.00000515,0.00001
 558,0.00000339,-0.00000527,0.00000662,-0.00000178,0.00000107,0.0000016
 4,0.00000080,0.00000023,-0.00000171,-0.00000203,0.00000579,0.00000235,
 0.00000207,0.00000004,0.00000508,0.00000293,-0.00000015,0.00000708,0.0
 0000297,-0.00000110,0.00001026,0.00000162,-0.00000610,0.00000758,0.000
 00511,-0.00000702,0.00000368,0.00000534,-0.00000686,0.00000629,-0.0000
 0058,0.00000374,0.00000892,-0.00000146,0.00000794,0.00000861,0.0000017
 4,0.00000209,0.00001571,0.00000346,-0.00000042,0.00001604,0.00000437,-
 0.00000566,0.00000967,-0.00000236,0.00000600,0.00001085,-0.00000099,0.
 00000713,0.00001243,-0.00000108,0.00000755,0.00001296,-0.00000322,0.00
 000877,0.00000703,0.00000431,-0.00000360,0.00001001,0.00000549,-0.0000
 0758,0.00001096,-0.00000050,0.00000332,0.00000598,0.00000154,-0.000001
 09,0.00001146,-0.00000272,0.00000760,0.00000413,-0.00000483,0.00001019
 ,0.00000221,-0.00000386,0.00000796,0.00000184,-0.00000434,0.00001105,0
 .00000703,0.00000025,-0.00000542,-0.00001186,0.00000185,-0.00000829,-0
 .00001112,0.00000139,-0.00000642,-0.00001103,-0.00000090,-0.00000325,-
 0.00001310,0.00000022,-0.00000178,-0.00000432,-0.00000076,0.00000070,-
 0.00000157,0.00000127,-0.00000448,-0.00000583,-0.00000219,0.00000031,-
 0.00000811,0.00000399,-0.00000611,-0.00000176,0.00000340,-0.00000922,-
 0.00000199,0.00000190,-0.00000404,0.00000175,0.00000311,-0.00000773,-0
 .00000232\\\@


    WHAT WE HAVE LEARNED
 IS LIKE A HANDFUL OF EARTH;
  WHAT WE HAVE YET TO LEARN
   IS LIKE THE WHOLE WORLD.

         -- AVVAYIAR
 Job cpu time:       3 days  0 hours 44 minutes 31.6 seconds.
 File lengths (MBytes):  RWF=   7398 Int=      0 D2E=      0 Chk=     25 Scr=      1
 Normal termination of Gaussian 09 at Fri Feb  2 15:53:22 2018.
