 Entering Gaussian System, Link 0=g09
 Initial command:
 /sw/group/lms/sw/g09_D01/g09/l1.exe "/work/job.575685/Gau-23169.inp" -scrdir="/work/job.575685/"
 Default is to use a total of  28 processors:
                               28 via shared-memory
                                1 via Linda
 Entering Link 1 = /sw/group/lms/sw/g09_D01/g09/l1.exe PID=     23170.
  
 Copyright (c) 1988,1990,1992,1993,1995,1998,2003,2009,2013,
            Gaussian, Inc.  All Rights Reserved.
  
 This is part of the Gaussian(R) 09 program.  It is based on
 the Gaussian(R) 03 system (copyright 2003, Gaussian, Inc.),
 the Gaussian(R) 98 system (copyright 1998, Gaussian, Inc.),
 the Gaussian(R) 94 system (copyright 1995, Gaussian, Inc.),
 the Gaussian 92(TM) system (copyright 1992, Gaussian, Inc.),
 the Gaussian 90(TM) system (copyright 1990, Gaussian, Inc.),
 the Gaussian 88(TM) system (copyright 1988, Gaussian, Inc.),
 the Gaussian 86(TM) system (copyright 1986, Carnegie Mellon
 University), and the Gaussian 82(TM) system (copyright 1983,
 Carnegie Mellon University). Gaussian is a federally registered
 trademark of Gaussian, Inc.
  
 This software contains proprietary and confidential information,
 including trade secrets, belonging to Gaussian, Inc.
  
 This software is provided under written license and may be
 used, copied, transmitted, or stored only in accord with that
 written license.
  
 The following legend is applicable only to US Government
 contracts under FAR:
  
                    RESTRICTED RIGHTS LEGEND
  
 Use, reproduction and disclosure by the US Government is
 subject to restrictions as set forth in subparagraphs (a)
 and (c) of the Commercial Computer Software - Restricted
 Rights clause in FAR 52.227-19.
  
 Gaussian, Inc.
 340 Quinnipiac St., Bldg. 40, Wallingford CT 06492
  
  
 ---------------------------------------------------------------
 Warning -- This program may not be used in any manner that
 competes with the business of Gaussian, Inc. or will provide
 assistance to any competitor of Gaussian, Inc.  The licensee
 of this program is prohibited from giving any competitor of
 Gaussian, Inc. access to this program.  By using this program,
 the user acknowledges that Gaussian, Inc. is engaged in the
 business of creating and licensing software in the field of
 computational chemistry and represents and warrants to the
 licensee that it is not a competitor of Gaussian, Inc. and that
 it will not use this program in any manner prohibited above.
 ---------------------------------------------------------------
  

 Cite this work as:
 Gaussian 09, Revision D.01,
 M. J. Frisch, G. W. Trucks, H. B. Schlegel, G. E. Scuseria, 
 M. A. Robb, J. R. Cheeseman, G. Scalmani, V. Barone, B. Mennucci, 
 G. A. Petersson, H. Nakatsuji, M. Caricato, X. Li, H. P. Hratchian, 
 A. F. Izmaylov, J. Bloino, G. Zheng, J. L. Sonnenberg, M. Hada, 
 M. Ehara, K. Toyota, R. Fukuda, J. Hasegawa, M. Ishida, T. Nakajima, 
 Y. Honda, O. Kitao, H. Nakai, T. Vreven, J. A. Montgomery, Jr., 
 J. E. Peralta, F. Ogliaro, M. Bearpark, J. J. Heyd, E. Brothers, 
 K. N. Kudin, V. N. Staroverov, T. Keith, R. Kobayashi, J. Normand, 
 K. Raghavachari, A. Rendell, J. C. Burant, S. S. Iyengar, J. Tomasi, 
 M. Cossi, N. Rega, J. M. Millam, M. Klene, J. E. Knox, J. B. Cross, 
 V. Bakken, C. Adamo, J. Jaramillo, R. Gomperts, R. E. Stratmann, 
 O. Yazyev, A. J. Austin, R. Cammi, C. Pomelli, J. W. Ochterski, 
 R. L. Martin, K. Morokuma, V. G. Zakrzewski, G. A. Voth, 
 P. Salvador, J. J. Dannenberg, S. Dapprich, A. D. Daniels, 
 O. Farkas, J. B. Foresman, J. V. Ortiz, J. Cioslowski, 
 and D. J. Fox, Gaussian, Inc., Wallingford CT, 2013.
 
 ******************************************
 Gaussian 09:  ES64L-G09RevD.01 24-Apr-2013
                 2-Feb-2018 
 ******************************************
 %chk=Sub-10-Cl-18-tBu.S.2_2a_s_up_d.Cf1.chk
 ---------------------------------------------------------
 #M06/genecp denfit freq=(hpmodes,noraman,temperature=298)
 ---------------------------------------------------------
 1/10=4,30=1,38=1,112=298000/1,3;
 2/12=2,17=6,18=5,40=1/2;
 3/5=7,11=2,16=1,17=8,25=1,30=1,71=2,74=-54,82=47,140=1/1,2,3;
 4//1;
 5/5=2,38=5,98=1/2;
 8/6=4,10=90,11=11/1;
 11/6=1,8=1,9=11,15=111,16=1/1,2,10;
 10/6=1/2;
 6/7=2,8=2,9=2,10=2,18=1,28=1/1;
 7/8=11,10=1,25=1/1,2,3,16;
 1/10=4,30=1/3;
 99//99;
 -----------------------------------------------------
 Sub-10-Cl-18-tBu/S/2_2a_s_up_d/Cf1 step 4 (attempt 1)
 -----------------------------------------------------
 Symbolic Z-matrix:
 Charge =  1 Multiplicity = 1
 C                    0    -1.35868   2.19437   0.85218 
 C                    0    -1.9838    3.17394   1.60503 
 C                    0    -3.37722   3.23821   1.5773 
 C                    0    -4.07226   2.35956   0.76648 
 H                    0    -5.15366   2.39806   0.66632 
 C                    0    -3.34085   1.40963   0.04442 
 N                    0    -2.02581   1.27693   0.10735 
 H                    0    -3.90938   3.98875   2.15755 
 H                    0    -1.38678   3.87501   2.18239 
 Cl                   0    -4.21136   0.39619  -1.05714 
 C                    0     0.10116   2.15689   0.71066 
 O                    0     0.8253    3.0732    1.34499 
 N                    0     0.70514   1.32942  -0.06041 
 C                    0     2.21016   2.73039   1.05281 
 H                    0     2.74495   3.66413   0.86166 
 H                    0     2.62193   2.2533    1.95101 
 C                    0     2.10753   1.77222  -0.1435 
 C                    0     2.41772   2.39417  -1.52794 
 H                    0     2.76672   0.90408   0.00421 
 Pd                   0    -0.49443  -0.53428  -0.21781 
 C                    0     4.02304  -2.31281   0.28537 
 C                    0     3.48743  -1.85218  -1.06128 
 C                    0     1.99375  -2.14574  -1.16336 
 C                    0     1.22826  -1.71257   0.06012 
 C                    0     1.81136  -1.45784   1.2557 
 H                    0     1.5598   -1.67971  -2.06272 
 C                    0    -2.72215  -2.21189   0.91919 
 H                    0    -3.56364  -1.57794   0.62093 
 H                    0    -2.32833  -1.84165   1.87391 
 C                    0    -2.19164  -2.52695  -1.56182 
 C                    0    -1.67709  -2.28629  -0.15856 
 C                    0    -0.43036  -2.93324   0.11253 
 H                    0    -3.03288  -1.85895  -1.79539 
 H                    0    -1.3904   -2.34405  -2.30226 
 C                    0     3.29376  -1.61052   1.39897 
 O                    0     3.85687  -1.16985   2.38539 
 H                    0     1.87437  -3.23458  -1.30479 
 C                    0    -0.21271  -3.70639   1.37701 
 H                    0    -0.90482  -4.56297   1.34954 
 H                    0     0.81029  -4.0941    1.4444 
 H                    0    -0.43261  -3.13922   2.28708 
 O                    0    -2.59162  -3.88688  -1.57371 
 H                    0    -3.07204  -4.08699  -2.38971 
 H                    0    -3.13079  -3.22034   1.09563 
 H                    0    -0.02847  -3.42654  -0.77492 
 C                    0     1.12007  -0.972     2.48955 
 H                    0     1.49558   0.02333   2.76864 
 H                    0     0.03349  -0.89628   2.35748 
 H                    0     1.34472  -1.61757   3.34985 
 H                    0     3.67654  -0.77382  -1.17922 
 H                    0     4.01607  -2.35162  -1.88357 
 H                    0     3.85998  -3.39912   0.40032 
 H                    0     5.09731  -2.13145   0.40259 
 C                    0     1.61398   3.67266  -1.7672 
 H                    0     1.85077   4.07584  -2.76092 
 H                    0     0.53076   3.48419  -1.74758 
 H                    0     1.84121   4.46457  -1.04041 
 C                    0     3.91422   2.70244  -1.5824 
 H                    0     4.51918   1.79589  -1.43303 
 H                    0     4.17938   3.1183   -2.56362 
 H                    0     4.22379   3.43966  -0.82825 
 C                    0     2.07344   1.39119  -2.62949 
 H                    0     2.34483   1.80494  -3.61014 
 H                    0     2.62548   0.4476   -2.51048 
 H                    0     0.99914   1.16121  -2.64829 
 

 GradGradGradGradGradGradGradGradGradGradGradGradGradGradGradGradGradGrad
 Berny optimization.
 Initialization pass.
 Trust Radius=3.00D-01 FncErr=1.00D-07 GrdErr=1.00D-07
 Number of steps in this run=      2 maximum allowed number of steps=      2.
 GradGradGradGradGradGradGradGradGradGradGradGradGradGradGradGradGradGrad

 Stoichiometry    C24H34ClN2O3Pd(1+)
 Framework group  C1[X(C24H34ClN2O3Pd)]
 Deg. of freedom   189
 Full point group                 C1      NOp   1
 Largest Abelian subgroup         C1      NOp   1
 Largest concise Abelian subgroup C1      NOp   1
                         Standard orientation:                         
 ---------------------------------------------------------------------
 Center     Atomic      Atomic             Coordinates (Angstroms)
 Number     Number       Type             X           Y           Z
 ---------------------------------------------------------------------
      1          6           0       -1.358675    2.194368    0.852180
      2          6           0       -1.983803    3.173942    1.605030
      3          6           0       -3.377221    3.238209    1.577303
      4          6           0       -4.072258    2.359562    0.766483
      5          1           0       -5.153661    2.398064    0.666321
      6          6           0       -3.340852    1.409625    0.044419
      7          7           0       -2.025811    1.276933    0.107351
      8          1           0       -3.909375    3.988753    2.157551
      9          1           0       -1.386784    3.875009    2.182388
     10         17           0       -4.211355    0.396189   -1.057144
     11          6           0        0.101161    2.156890    0.710657
     12          8           0        0.825304    3.073200    1.344988
     13          7           0        0.705135    1.329423   -0.060413
     14          6           0        2.210155    2.730390    1.052814
     15          1           0        2.744952    3.664125    0.861662
     16          1           0        2.621932    2.253303    1.951012
     17          6           0        2.107526    1.772215   -0.143503
     18          6           0        2.417724    2.394171   -1.527936
     19          1           0        2.766715    0.904075    0.004214
     20         46           0       -0.494430   -0.534279   -0.217811
     21          6           0        4.023044   -2.312813    0.285370
     22          6           0        3.487433   -1.852180   -1.061280
     23          6           0        1.993745   -2.145739   -1.163364
     24          6           0        1.228264   -1.712568    0.060120
     25          6           0        1.811362   -1.457841    1.255697
     26          1           0        1.559802   -1.679708   -2.062725
     27          6           0       -2.722152   -2.211885    0.919190
     28          1           0       -3.563643   -1.577940    0.620933
     29          1           0       -2.328330   -1.841646    1.873911
     30          6           0       -2.191635   -2.526948   -1.561823
     31          6           0       -1.677092   -2.286286   -0.158561
     32          6           0       -0.430362   -2.933241    0.112527
     33          1           0       -3.032881   -1.858952   -1.795386
     34          1           0       -1.390403   -2.344049   -2.302259
     35          6           0        3.293760   -1.610520    1.398970
     36          8           0        3.856874   -1.169854    2.385389
     37          1           0        1.874369   -3.234579   -1.304785
     38          6           0       -0.212714   -3.706394    1.377012
     39          1           0       -0.904818   -4.562974    1.349535
     40          1           0        0.810293   -4.094105    1.444400
     41          1           0       -0.432607   -3.139224    2.287079
     42          8           0       -2.591623   -3.886880   -1.573710
     43          1           0       -3.072039   -4.086989   -2.389709
     44          1           0       -3.130787   -3.220336    1.095629
     45          1           0       -0.028472   -3.426544   -0.774922
     46          6           0        1.120065   -0.971997    2.489550
     47          1           0        1.495580    0.023332    2.768643
     48          1           0        0.033492   -0.896284    2.357480
     49          1           0        1.344723   -1.617569    3.349850
     50          1           0        3.676540   -0.773815   -1.179217
     51          1           0        4.016075   -2.351619   -1.883565
     52          1           0        3.859979   -3.399117    0.400324
     53          1           0        5.097307   -2.131455    0.402589
     54          6           0        1.613976    3.672655   -1.767202
     55          1           0        1.850765    4.075844   -2.760916
     56          1           0        0.530764    3.484193   -1.747575
     57          1           0        1.841207    4.464573   -1.040408
     58          6           0        3.914216    2.702440   -1.582397
     59          1           0        4.519179    1.795886   -1.433031
     60          1           0        4.179375    3.118301   -2.563619
     61          1           0        4.223790    3.439658   -0.828249
     62          6           0        2.073442    1.391188   -2.629486
     63          1           0        2.344826    1.804939   -3.610139
     64          1           0        2.625478    0.447600   -2.510477
     65          1           0        0.999137    1.161214   -2.648289
 ---------------------------------------------------------------------
 Rotational constants (GHZ):      0.1561547      0.1289613      0.0914454
 General basis read from cards:  (5D, 7F)
 ======================================================================================================
                                       Pseudopotential Parameters
 ======================================================================================================
  Center     Atomic      Valence      Angular      Power
  Number     Number     Electrons     Momentum     of R      Exponent        Coefficient   SO-Coeffient
 ======================================================================================================
    1          6
                                   No pseudopotential on this center.
    2          6
                                   No pseudopotential on this center.
    3          6
                                   No pseudopotential on this center.
    4          6
                                   No pseudopotential on this center.
    5          1
                                   No pseudopotential on this center.
    6          6
                                   No pseudopotential on this center.
    7          7
                                   No pseudopotential on this center.
    8          1
                                   No pseudopotential on this center.
    9          1
                                   No pseudopotential on this center.
   10         17
                                   No pseudopotential on this center.
   11          6
                                   No pseudopotential on this center.
   12          8
                                   No pseudopotential on this center.
   13          7
                                   No pseudopotential on this center.
   14          6
                                   No pseudopotential on this center.
   15          1
                                   No pseudopotential on this center.
   16          1
                                   No pseudopotential on this center.
   17          6
                                   No pseudopotential on this center.
   18          6
                                   No pseudopotential on this center.
   19          1
                                   No pseudopotential on this center.
   20         46           18
                                      F and up 
                                                     0      598.3336444       -0.05631770    0.00000000
                                                     1      162.4298290      -20.12880360    0.00000000
                                                     2       51.5714771     -105.81979230    0.00000000
                                                     2       16.4888260      -42.57333450    0.00000000
                                                     2        5.8287656       -3.61650860    0.00000000
                                      S - F
                                                     0       73.3806304        3.00036510    0.00000000
                                                     1       14.7550438       32.43500930    0.00000000
                                                     2       17.8350204      459.08303830    0.00000000
                                                     2       12.7111477     -868.06290290    0.00000000
                                                     2        9.3292063      514.47260980    0.00000000
                                      P - F
                                                     0       55.6689877        4.95930990    0.00000000
                                                     1       64.2337771       21.17110290    0.00000000
                                                     2       17.6254952      605.05600920    0.00000000
                                                     2       11.9058155     -726.96418460    0.00000000
                                                     2        8.5100832      396.32748830    0.00000000
                                      D - F
                                                     0       49.9994728        3.05087450    0.00000000
                                                     1       39.7477547       22.25065800    0.00000000
                                                     2       11.4321366      674.83576980    0.00000000
                                                     2        9.1790080    -1040.85540480    0.00000000
                                                     2        7.5624429      505.93751470    0.00000000
   21          6
                                   No pseudopotential on this center.
   22          6
                                   No pseudopotential on this center.
   23          6
                                   No pseudopotential on this center.
   24          6
                                   No pseudopotential on this center.
   25          6
                                   No pseudopotential on this center.
   26          1
                                   No pseudopotential on this center.
   27          6
                                   No pseudopotential on this center.
   28          1
                                   No pseudopotential on this center.
   29          1
                                   No pseudopotential on this center.
   30          6
                                   No pseudopotential on this center.
   31          6
                                   No pseudopotential on this center.
   32          6
                                   No pseudopotential on this center.
   33          1
                                   No pseudopotential on this center.
   34          1
                                   No pseudopotential on this center.
   35          6
                                   No pseudopotential on this center.
   36          8
                                   No pseudopotential on this center.
   37          1
                                   No pseudopotential on this center.
   38          6
                                   No pseudopotential on this center.
   39          1
                                   No pseudopotential on this center.
   40          1
                                   No pseudopotential on this center.
   41          1
                                   No pseudopotential on this center.
   42          8
                                   No pseudopotential on this center.
   43          1
                                   No pseudopotential on this center.
   44          1
                                   No pseudopotential on this center.
   45          1
                                   No pseudopotential on this center.
   46          6
                                   No pseudopotential on this center.
   47          1
                                   No pseudopotential on this center.
   48          1
                                   No pseudopotential on this center.
   49          1
                                   No pseudopotential on this center.
   50          1
                                   No pseudopotential on this center.
   51          1
                                   No pseudopotential on this center.
   52          1
                                   No pseudopotential on this center.
   53          1
                                   No pseudopotential on this center.
   54          6
                                   No pseudopotential on this center.
   55          1
                                   No pseudopotential on this center.
   56          1
                                   No pseudopotential on this center.
   57          1
                                   No pseudopotential on this center.
   58          6
                                   No pseudopotential on this center.
   59          1
                                   No pseudopotential on this center.
   60          1
                                   No pseudopotential on this center.
   61          1
                                   No pseudopotential on this center.
   62          6
                                   No pseudopotential on this center.
   63          1
                                   No pseudopotential on this center.
   64          1
                                   No pseudopotential on this center.
   65          1
                                   No pseudopotential on this center.
 ======================================================================================================
 There are   666 symmetry adapted cartesian basis functions of A   symmetry.
 There are   634 symmetry adapted basis functions of A   symmetry.
   634 basis functions,  1169 primitive gaussians,   666 cartesian basis functions
   125 alpha electrons      125 beta electrons
       nuclear repulsion energy      3989.8423332399 Hartrees.
 NAtoms=   65 NActive=   65 NUniq=   65 SFac= 1.00D+00 NAtFMM=   60 NAOKFM=T Big=T
 Integral buffers will be    131072 words long.
 Raffenetti 2 integral format.
 Two-electron integral symmetry is turned on.
 Standard density basis: Auto (5D, 7F)
  2775 Density fitting functions
 There are  2775 symmetry adapted density basis functions of A   symmetry.
 One-electron integrals computed using PRISM.
   1 Symmetry operations used in ECPInt.
 ECPInt:  NShTT=   25878 NPrTT=  135610 LenC2=   23202 LenP2D=   72358.
 LDataN:  DoStor=T MaxTD1= 5 Len=  102
 NBasis=   634 RedAO= T EigKep=  1.17D-06  NBF=   634
 NBsUse=   633 1.00D-06 EigRej=  2.92D-07 NBFU=   633
 Defaulting to unpruned grid for atomic number  46.
 ExpMin= 2.62D-02 ExpMax= 2.52D+04 ExpMxC= 3.78D+03 IAcc=3 IRadAn=         5 AccDes= 0.00D+00
 Harris functional with IExCor= 1009 and IRadAn=       5 diagonalized for initial guess.
 HarFok:  IExCor= 1009 AccDes= 0.00D+00 IRadAn=         5 IDoV= 1 UseB2=F ITyADJ=14
 ICtDFT=  3500011 ScaDFX=  1.000000  1.000000  1.000000  1.000000
 Defaulting to unpruned grid for atomic number  46.
 Defaulting to unpruned grid for atomic number  46.
 Defaulting to unpruned grid for atomic number  46.
 Defaulting to unpruned grid for atomic number  46.
 Defaulting to unpruned grid for atomic number  46.
 Defaulting to unpruned grid for atomic number  46.
 Defaulting to unpruned grid for atomic number  46.
 Defaulting to unpruned grid for atomic number  46.
 Defaulting to unpruned grid for atomic number  46.
 Defaulting to unpruned grid for atomic number  46.
 Defaulting to unpruned grid for atomic number  46.
 Defaulting to unpruned grid for atomic number  46.
 Defaulting to unpruned grid for atomic number  46.
 Defaulting to unpruned grid for atomic number  46.
 Defaulting to unpruned grid for atomic number  46.
 Defaulting to unpruned grid for atomic number  46.
 Defaulting to unpruned grid for atomic number  46.
 Defaulting to unpruned grid for atomic number  46.
 Defaulting to unpruned grid for atomic number  46.
 Defaulting to unpruned grid for atomic number  46.
 Defaulting to unpruned grid for atomic number  46.
 Defaulting to unpruned grid for atomic number  46.
 Defaulting to unpruned grid for atomic number  46.
 Defaulting to unpruned grid for atomic number  46.
 Defaulting to unpruned grid for atomic number  46.
 Defaulting to unpruned grid for atomic number  46.
 Defaulting to unpruned grid for atomic number  46.
 Defaulting to unpruned grid for atomic number  46.
 FoFCou: FMM=F IPFlag=           0 FMFlag=      100000 FMFlg1=        2001
         NFxFlg=           0 DoJE=T BraDBF=F KetDBF=T FulRan=T
         wScrn=  0.000000 ICntrl=     500 IOpCl=  0 I1Cent=   200000004 NGrid=           0
         NMat0=    1 NMatS0=      1 NMatT0=    0 NMatD0=    1 NMtDS0=    0 NMtDT0=    0
 Petite list used in FoFCou.
 Requested convergence on RMS density matrix=1.00D-08 within 128 cycles.
 Requested convergence on MAX density matrix=1.00D-06.
 Requested convergence on             energy=1.00D-06.
 No special actions if energy rises.
 Defaulting to unpruned grid for atomic number  46.
 Defaulting to unpruned grid for atomic number  46.
 Defaulting to unpruned grid for atomic number  46.
 Defaulting to unpruned grid for atomic number  46.
 Defaulting to unpruned grid for atomic number  46.
 Defaulting to unpruned grid for atomic number  46.
 Defaulting to unpruned grid for atomic number  46.
 Defaulting to unpruned grid for atomic number  46.
 Defaulting to unpruned grid for atomic number  46.
 Defaulting to unpruned grid for atomic number  46.
 Defaulting to unpruned grid for atomic number  46.
 Defaulting to unpruned grid for atomic number  46.
 Defaulting to unpruned grid for atomic number  46.
 Defaulting to unpruned grid for atomic number  46.
 Defaulting to unpruned grid for atomic number  46.
 Defaulting to unpruned grid for atomic number  46.
 Defaulting to unpruned grid for atomic number  46.
 Defaulting to unpruned grid for atomic number  46.
 Defaulting to unpruned grid for atomic number  46.
 Defaulting to unpruned grid for atomic number  46.
 Defaulting to unpruned grid for atomic number  46.
 Defaulting to unpruned grid for atomic number  46.
 Defaulting to unpruned grid for atomic number  46.
 Defaulting to unpruned grid for atomic number  46.
 Defaulting to unpruned grid for atomic number  46.
 Defaulting to unpruned grid for atomic number  46.
 Defaulting to unpruned grid for atomic number  46.
 Defaulting to unpruned grid for atomic number  46.
 EnCoef did     2 forward-backward iterations
 EnCoef did     2 forward-backward iterations
 EnCoef did     4 forward-backward iterations
 EnCoef did     2 forward-backward iterations
 Restarting incremental Fock formation.
 SCF Done:  E(RM06) =  -1856.01652868     A.U. after   27 cycles
            NFock= 27  Conv=0.59D-08     -V/T= 2.0508
 DoSCS=F DFT=T ScalE2(SS,OS)=  1.000000  1.000000
 Range of M.O.s used for correlation:     1   633
 NBasis=   634 NAE=   125 NBE=   125 NFC=     0 NFV=     0
 NROrb=    633 NOA=   125 NOB=   125 NVA=   508 NVB=   508

 **** Warning!!: The largest alpha MO coefficient is  0.14982838D+03

   1 Symmetry operations used in ECPInt.
 ECPInt:  NShTT=   25878 NPrTT=  135610 LenC2=   23202 LenP2D=   72358.
 LDataN:  DoStor=T MaxTD1= 6 Len=  172
 Number of processors reduced to   9 by ecpmxn.
 Symmetrizing basis deriv contribution to polar:
 IMax=3 JMax=2 DiffMx= 0.00D+00
 G2DrvN: will do    66 centers at a time, making    1 passes.
 Calling FoFCou, ICntrl=  3107 FMM=T I1Cent=   0 AccDes= 0.00D+00.
 Defaulting to unpruned grid for atomic number  46.
 Defaulting to unpruned grid for atomic number  46.
 Defaulting to unpruned grid for atomic number  46.
 Defaulting to unpruned grid for atomic number  46.
 Defaulting to unpruned grid for atomic number  46.
 Defaulting to unpruned grid for atomic number  46.
 Defaulting to unpruned grid for atomic number  46.
 Defaulting to unpruned grid for atomic number  46.
 Defaulting to unpruned grid for atomic number  46.
 Defaulting to unpruned grid for atomic number  46.
 Defaulting to unpruned grid for atomic number  46.
 Defaulting to unpruned grid for atomic number  46.
 Defaulting to unpruned grid for atomic number  46.
 Defaulting to unpruned grid for atomic number  46.
 Defaulting to unpruned grid for atomic number  46.
 Defaulting to unpruned grid for atomic number  46.
 Defaulting to unpruned grid for atomic number  46.
 Defaulting to unpruned grid for atomic number  46.
 Defaulting to unpruned grid for atomic number  46.
 Defaulting to unpruned grid for atomic number  46.
 Defaulting to unpruned grid for atomic number  46.
 Defaulting to unpruned grid for atomic number  46.
 Defaulting to unpruned grid for atomic number  46.
 Defaulting to unpruned grid for atomic number  46.
 Defaulting to unpruned grid for atomic number  46.
 Defaulting to unpruned grid for atomic number  46.
 Defaulting to unpruned grid for atomic number  46.
 Defaulting to unpruned grid for atomic number  46.
 End of G2Drv F.D. properties file   721 does not exist.
 End of G2Drv F.D. properties file   722 does not exist.
 End of G2Drv F.D. properties file   788 does not exist.
          IDoAtm=11111111111111111111111111111111111111111111111111
          IDoAtm=111111111111111
          Differentiating once with respect to electric field.
                with respect to dipole field.
          Differentiating once with respect to nuclear coordinates.
 Defaulting to unpruned grid for atomic number  46.
 CalDSu exits because no D1Ps are significant.
 Defaulting to unpruned grid for atomic number  46.
 Defaulting to unpruned grid for atomic number  46.
 Defaulting to unpruned grid for atomic number  46.
 Defaulting to unpruned grid for atomic number  46.
 Defaulting to unpruned grid for atomic number  46.
 Defaulting to unpruned grid for atomic number  46.
 Defaulting to unpruned grid for atomic number  46.
 Defaulting to unpruned grid for atomic number  46.
 Defaulting to unpruned grid for atomic number  46.
 Defaulting to unpruned grid for atomic number  46.
 Defaulting to unpruned grid for atomic number  46.
 Defaulting to unpruned grid for atomic number  46.
 Defaulting to unpruned grid for atomic number  46.
 Defaulting to unpruned grid for atomic number  46.
 Defaulting to unpruned grid for atomic number  46.
 Defaulting to unpruned grid for atomic number  46.
 Defaulting to unpruned grid for atomic number  46.
 Defaulting to unpruned grid for atomic number  46.
 Defaulting to unpruned grid for atomic number  46.
 Defaulting to unpruned grid for atomic number  46.
 Defaulting to unpruned grid for atomic number  46.
 Defaulting to unpruned grid for atomic number  46.
 Defaulting to unpruned grid for atomic number  46.
 Defaulting to unpruned grid for atomic number  46.
 Defaulting to unpruned grid for atomic number  46.
 Defaulting to unpruned grid for atomic number  46.
 Defaulting to unpruned grid for atomic number  46.
 Defaulting to unpruned grid for atomic number  46.
          There are   198 degrees of freedom in the 1st order CPHF.  IDoFFX=6 NUNeed=     3.
    198 vectors produced by pass  0 Test12= 6.35D-14 1.00D-09 XBig12= 4.32D+02 7.95D+00.
 AX will form    84 AO Fock derivatives at one time.
    198 vectors produced by pass  1 Test12= 6.35D-14 1.00D-09 XBig12= 8.31D+01 1.27D+00.
    195 vectors produced by pass  2 Test12= 6.35D-14 1.00D-09 XBig12= 1.10D+00 9.48D-02.
    195 vectors produced by pass  3 Test12= 6.35D-14 1.00D-09 XBig12= 8.97D-03 8.15D-03.
    195 vectors produced by pass  4 Test12= 6.35D-14 1.00D-09 XBig12= 4.23D-05 4.95D-04.
    195 vectors produced by pass  5 Test12= 6.35D-14 1.00D-09 XBig12= 1.28D-07 1.78D-05.
    195 vectors produced by pass  6 Test12= 6.35D-14 1.00D-09 XBig12= 3.02D-10 1.00D-06.
    194 vectors produced by pass  7 Test12= 6.35D-14 1.00D-09 XBig12= 2.83D-12 6.93D-08.
    194 vectors produced by pass  8 Test12= 6.35D-14 1.00D-09 XBig12= 1.74D-13 1.91D-08.
    194 vectors produced by pass  9 Test12= 6.35D-14 1.00D-09 XBig12= 1.07D-13 1.27D-08.
    193 vectors produced by pass 10 Test12= 6.35D-14 1.00D-09 XBig12= 6.36D-14 1.03D-08.
    192 vectors produced by pass 11 Test12= 6.35D-14 1.00D-09 XBig12= 7.87D-14 1.29D-08.
    167 vectors produced by pass 12 Test12= 6.35D-14 1.00D-09 XBig12= 4.97D-14 7.44D-09.
    119 vectors produced by pass 13 Test12= 6.35D-14 1.00D-09 XBig12= 5.87D-14 9.68D-09.
    113 vectors produced by pass 14 Test12= 6.35D-14 1.00D-09 XBig12= 3.04D-14 6.98D-09.
    106 vectors produced by pass 15 Test12= 6.35D-14 1.00D-09 XBig12= 2.24D-14 5.93D-09.
     49 vectors produced by pass 16 Test12= 6.35D-14 1.00D-09 XBig12= 2.19D-14 5.04D-09.
     30 vectors produced by pass 17 Test12= 6.35D-14 1.00D-09 XBig12= 5.81D-15 2.64D-09.
     30 vectors produced by pass 18 Test12= 6.35D-14 1.00D-09 XBig12= 1.01D-14 3.47D-09.
     30 vectors produced by pass 19 Test12= 6.35D-14 1.00D-09 XBig12= 1.02D-14 3.30D-09.
     30 vectors produced by pass 20 Test12= 6.35D-14 1.00D-09 XBig12= 1.18D-14 3.58D-09.
     22 vectors produced by pass 21 Test12= 6.35D-14 1.00D-09 XBig12= 3.35D-15 1.90D-09.
     22 vectors produced by pass 22 Test12= 6.35D-14 1.00D-09 XBig12= 3.44D-15 1.99D-09.
     22 vectors produced by pass 23 Test12= 6.35D-14 1.00D-09 XBig12= 4.72D-15 2.46D-09.
     22 vectors produced by pass 24 Test12= 6.35D-14 1.00D-09 XBig12= 7.05D-15 2.79D-09.
     22 vectors produced by pass 25 Test12= 6.35D-14 1.00D-09 XBig12= 5.40D-15 2.60D-09.
     22 vectors produced by pass 26 Test12= 6.35D-14 1.00D-09 XBig12= 7.35D-15 2.99D-09.
     22 vectors produced by pass 27 Test12= 6.35D-14 1.00D-09 XBig12= 5.95D-15 2.58D-09.
     22 vectors produced by pass 28 Test12= 6.35D-14 1.00D-09 XBig12= 7.29D-15 2.86D-09.
     22 vectors produced by pass 29 Test12= 6.35D-14 1.00D-09 XBig12= 5.05D-15 2.40D-09.
     22 vectors produced by pass 30 Test12= 6.35D-14 1.00D-09 XBig12= 5.34D-15 2.38D-09.
     22 vectors produced by pass 31 Test12= 6.35D-14 1.00D-09 XBig12= 3.52D-15 1.92D-09.
     21 vectors produced by pass 32 Test12= 6.35D-14 1.00D-09 XBig12= 3.37D-15 1.84D-09.
     21 vectors produced by pass 33 Test12= 6.35D-14 1.00D-09 XBig12= 3.77D-15 1.92D-09.
     19 vectors produced by pass 34 Test12= 6.35D-14 1.00D-09 XBig12= 2.22D-15 1.49D-09.
     19 vectors produced by pass 35 Test12= 6.35D-14 1.00D-09 XBig12= 3.90D-15 2.05D-09.
     19 vectors produced by pass 36 Test12= 6.35D-14 1.00D-09 XBig12= 1.14D-14 3.81D-09.
      5 vectors produced by pass 37 Test12= 6.35D-14 1.00D-09 XBig12= 1.26D-15 1.17D-09.
      5 vectors produced by pass 38 Test12= 6.35D-14 1.00D-09 XBig12= 2.95D-15 1.89D-09.
      5 vectors produced by pass 39 Test12= 6.35D-14 1.00D-09 XBig12= 4.25D-15 2.68D-09.
      5 vectors produced by pass 40 Test12= 6.35D-14 1.00D-09 XBig12= 7.02D-15 2.64D-09.
      5 vectors produced by pass 41 Test12= 6.35D-14 1.00D-09 XBig12= 6.44D-15 3.05D-09.
      5 vectors produced by pass 42 Test12= 6.35D-14 1.00D-09 XBig12= 2.57D-15 1.68D-09.
      5 vectors produced by pass 43 Test12= 6.35D-14 1.00D-09 XBig12= 8.66D-15 2.83D-09.
      5 vectors produced by pass 44 Test12= 6.35D-14 1.00D-09 XBig12= 3.89D-15 2.34D-09.
      5 vectors produced by pass 45 Test12= 6.35D-14 1.00D-09 XBig12= 9.85D-15 2.98D-09.
      5 vectors produced by pass 46 Test12= 6.35D-14 1.00D-09 XBig12= 7.69D-15 2.81D-09.
      5 vectors produced by pass 47 Test12= 6.35D-14 1.00D-09 XBig12= 1.05D-14 3.08D-09.
      5 vectors produced by pass 48 Test12= 6.35D-14 1.00D-09 XBig12= 1.47D-14 3.73D-09.
      5 vectors produced by pass 49 Test12= 6.35D-14 1.00D-09 XBig12= 5.59D-15 3.36D-09.
      5 vectors produced by pass 50 Test12= 6.35D-14 1.00D-09 XBig12= 2.97D-15 1.87D-09.
      5 vectors produced by pass 51 Test12= 6.35D-14 1.00D-09 XBig12= 7.15D-15 2.81D-09.
      5 vectors produced by pass 52 Test12= 6.35D-14 1.00D-09 XBig12= 4.93D-15 2.23D-09.
      5 vectors produced by pass 53 Test12= 6.35D-14 1.00D-09 XBig12= 4.22D-15 2.38D-09.
      5 vectors produced by pass 54 Test12= 6.35D-14 1.00D-09 XBig12= 9.29D-15 3.55D-09.
      5 vectors produced by pass 55 Test12= 6.35D-14 1.00D-09 XBig12= 3.46D-15 1.90D-09.
      5 vectors produced by pass 56 Test12= 6.35D-14 1.00D-09 XBig12= 2.51D-15 1.66D-09.
      5 vectors produced by pass 57 Test12= 6.35D-14 1.00D-09 XBig12= 4.08D-15 2.09D-09.
      5 vectors produced by pass 58 Test12= 6.35D-14 1.00D-09 XBig12= 7.38D-15 2.64D-09.
      5 vectors produced by pass 59 Test12= 6.35D-14 1.00D-09 XBig12= 6.13D-15 2.84D-09.
      5 vectors produced by pass 60 Test12= 6.35D-14 1.00D-09 XBig12= 1.06D-14 3.68D-09.
      5 vectors produced by pass 61 Test12= 6.35D-14 1.00D-09 XBig12= 3.45D-15 2.06D-09.
      5 vectors produced by pass 62 Test12= 6.35D-14 1.00D-09 XBig12= 2.99D-15 1.74D-09.
      5 vectors produced by pass 63 Test12= 6.35D-14 1.00D-09 XBig12= 2.64D-15 2.01D-09.
      5 vectors produced by pass 64 Test12= 6.35D-14 1.00D-09 XBig12= 4.58D-15 2.13D-09.
      5 vectors produced by pass 65 Test12= 6.35D-14 1.00D-09 XBig12= 1.25D-15 1.21D-09.
      5 vectors produced by pass 66 Test12= 6.35D-14 1.00D-09 XBig12= 1.82D-15 1.41D-09.
      5 vectors produced by pass 67 Test12= 6.35D-14 1.00D-09 XBig12= 3.35D-15 2.01D-09.
      5 vectors produced by pass 68 Test12= 6.35D-14 1.00D-09 XBig12= 2.41D-15 1.55D-09.
      5 vectors produced by pass 69 Test12= 6.35D-14 1.00D-09 XBig12= 3.51D-15 2.07D-09.
      5 vectors produced by pass 70 Test12= 6.35D-14 1.00D-09 XBig12= 2.93D-15 1.93D-09.
      2 vectors produced by pass 71 Test12= 6.35D-14 1.00D-09 XBig12= 1.25D-15 1.08D-09.
 InvSVY:  IOpt=1 It=  1 EMax= 8.59D-15
 Solved reduced A of dimension  3525 with   198 vectors.
 Isotropic polarizability for W=    0.000000      342.81 Bohr**3.
 End of Minotr F.D. properties file   721 does not exist.
 End of Minotr F.D. properties file   722 does not exist.
 End of Minotr F.D. properties file   788 does not exist.

 **********************************************************************

            Population analysis using the SCF density.

 **********************************************************************

 Orbital symmetries:
       Occupied  (A) (A) (A) (A) (A) (A) (A) (A) (A) (A) (A) (A)
                 (A) (A) (A) (A) (A) (A) (A) (A) (A) (A) (A) (A)
                 (A) (A) (A) (A) (A) (A) (A) (A) (A) (A) (A) (A)
                 (A) (A) (A) (A) (A) (A) (A) (A) (A) (A) (A) (A)
                 (A) (A) (A) (A) (A) (A) (A) (A) (A) (A) (A) (A)
                 (A) (A) (A) (A) (A) (A) (A) (A) (A) (A) (A) (A)
                 (A) (A) (A) (A) (A) (A) (A) (A) (A) (A) (A) (A)
                 (A) (A) (A) (A) (A) (A) (A) (A) (A) (A) (A) (A)
                 (A) (A) (A) (A) (A) (A) (A) (A) (A) (A) (A) (A)
                 (A) (A) (A) (A) (A) (A) (A) (A) (A) (A) (A) (A)
                 (A) (A) (A) (A) (A)
       Virtual   (A) (A) (A) (A) (A) (A) (A) (A) (A) (A) (A) (A)
                 (A) (A) (A) (A) (A) (A) (A) (A) (A) (A) (A) (A)
                 (A) (A) (A) (A) (A) (A) (A) (A) (A) (A) (A) (A)
                 (A) (A) (A) (A) (A) (A) (A) (A) (A) (A) (A) (A)
                 (A) (A) (A) (A) (A) (A) (A) (A) (A) (A) (A) (A)
                 (A) (A) (A) (A) (A) (A) (A) (A) (A) (A) (A) (A)
                 (A) (A) (A) (A) (A) (A) (A) (A) (A) (A) (A) (A)
                 (A) (A) (A) (A) (A) (A) (A) (A) (A) (A) (A) (A)
                 (A) (A) (A) (A) (A) (A) (A) (A) (A) (A) (A) (A)
                 (A) (A) (A) (A) (A) (A) (A) (A) (A) (A) (A) (A)
                 (A) (A) (A) (A) (A) (A) (A) (A) (A) (A) (A) (A)
                 (A) (A) (A) (A) (A) (A) (A) (A) (A) (A) (A) (A)
                 (A) (A) (A) (A) (A) (A) (A) (A) (A) (A) (A) (A)
                 (A) (A) (A) (A) (A) (A) (A) (A) (A) (A) (A) (A)
                 (A) (A) (A) (A) (A) (A) (A) (A) (A) (A) (A) (A)
                 (A) (A) (A) (A) (A) (A) (A) (A) (A) (A) (A) (A)
                 (A) (A) (A) (A) (A) (A) (A) (A) (A) (A) (A) (A)
                 (A) (A) (A) (A) (A) (A) (A) (A) (A) (A) (A) (A)
                 (A) (A) (A) (A) (A) (A) (A) (A) (A) (A) (A) (A)
                 (A) (A) (A) (A) (A) (A) (A) (A) (A) (A) (A) (A)
                 (A) (A) (A) (A) (A) (A) (A) (A) (A) (A) (A) (A)
                 (A) (A) (A) (A) (A) (A) (A) (A) (A) (A) (A) (A)
                 (A) (A) (A) (A) (A) (A) (A) (A) (A) (A) (A) (A)
                 (A) (A) (A) (A) (A) (A) (A) (A) (A) (A) (A) (A)
                 (A) (A) (A) (A) (A) (A) (A) (A) (A) (A) (A) (A)
                 (A) (A) (A) (A) (A) (A) (A) (A) (A) (A) (A) (A)
                 (A) (A) (A) (A) (A) (A) (A) (A) (A) (A) (A) (A)
                 (A) (A) (A) (A) (A) (A) (A) (A) (A) (A) (A) (A)
                 (A) (A) (A) (A) (A) (A) (A) (A) (A) (A) (A) (A)
                 (A) (A) (A) (A) (A) (A) (A) (A) (A) (A) (A) (A)
                 (A) (A) (A) (A) (A) (A) (A) (A) (A) (A) (A) (A)
                 (A) (A) (A) (A) (A) (A) (A) (A) (A) (A) (A) (A)
                 (A) (A) (A) (A) (A) (A) (A) (A) (A) (A) (A) (A)
                 (A) (A) (A) (A) (A) (A) (A) (A) (A) (A) (A) (A)
                 (A) (A) (A) (A) (A) (A) (A) (A) (A) (A) (A) (A)
                 (A) (A) (A) (A) (A) (A) (A) (A) (A) (A) (A) (A)
                 (A) (A) (A) (A) (A) (A) (A) (A) (A) (A) (A) (A)
                 (A) (A) (A) (A) (A) (A) (A) (A) (A) (A) (A) (A)
                 (A) (A) (A) (A) (A) (A) (A) (A) (A) (A) (A) (A)
                 (A) (A) (A) (A) (A) (A) (A) (A) (A) (A) (A) (A)
                 (A) (A) (A) (A) (A) (A) (A) (A) (A) (A) (A) (A)
                 (A) (A) (A) (A) (A) (A) (A) (A) (A) (A) (A) (A)
                 (A) (A) (A) (A)
 The electronic state is 1-A.
 Alpha  occ. eigenvalues -- -101.85029 -19.41292 -19.34409 -19.32613 -14.58416
 Alpha  occ. eigenvalues --  -14.54585 -10.49478 -10.49332 -10.45466 -10.44425
 Alpha  occ. eigenvalues --  -10.42965 -10.42309 -10.41663 -10.41577 -10.41380
 Alpha  occ. eigenvalues --  -10.41077 -10.40927 -10.40801 -10.40474 -10.37971
 Alpha  occ. eigenvalues --  -10.37408 -10.37163 -10.36275 -10.36098 -10.35567
 Alpha  occ. eigenvalues --  -10.35364 -10.35305 -10.33605 -10.33581 -10.33557
 Alpha  occ. eigenvalues --   -9.72299  -7.43550  -7.42535  -7.42476  -3.46327
 Alpha  occ. eigenvalues --   -2.20675  -2.20426  -2.17501  -1.26473  -1.16399
 Alpha  occ. eigenvalues --   -1.16238  -1.13581  -1.06936  -1.01824  -0.97865
 Alpha  occ. eigenvalues --   -0.97050  -0.95878  -0.95531  -0.92292  -0.90354
 Alpha  occ. eigenvalues --   -0.87795  -0.87228  -0.85322  -0.82007  -0.81330
 Alpha  occ. eigenvalues --   -0.80632  -0.80055  -0.79538  -0.79139  -0.77138
 Alpha  occ. eigenvalues --   -0.76482  -0.72596  -0.72406  -0.71161  -0.68633
 Alpha  occ. eigenvalues --   -0.66896  -0.66302  -0.65587  -0.64971  -0.64491
 Alpha  occ. eigenvalues --   -0.63362  -0.62188  -0.60717  -0.60575  -0.59738
 Alpha  occ. eigenvalues --   -0.59206  -0.59033  -0.58885  -0.58111  -0.57630
 Alpha  occ. eigenvalues --   -0.57379  -0.56626  -0.56503  -0.55481  -0.55094
 Alpha  occ. eigenvalues --   -0.54842  -0.53895  -0.53530  -0.53291  -0.52987
 Alpha  occ. eigenvalues --   -0.52428  -0.52289  -0.51926  -0.51645  -0.51349
 Alpha  occ. eigenvalues --   -0.50895  -0.50556  -0.50225  -0.49584  -0.49443
 Alpha  occ. eigenvalues --   -0.48849  -0.48524  -0.48127  -0.47838  -0.47517
 Alpha  occ. eigenvalues --   -0.47320  -0.46861  -0.46633  -0.46495  -0.45969
 Alpha  occ. eigenvalues --   -0.45251  -0.45076  -0.44260  -0.43984  -0.43712
 Alpha  occ. eigenvalues --   -0.42902  -0.41365  -0.40897  -0.40358  -0.39950
 Alpha  occ. eigenvalues --   -0.39393  -0.38170  -0.37477  -0.36141  -0.35691
 Alpha virt. eigenvalues --   -0.19793  -0.19275  -0.17142  -0.16218  -0.12611
 Alpha virt. eigenvalues --   -0.12296  -0.11541  -0.11082  -0.10536  -0.10406
 Alpha virt. eigenvalues --   -0.09974  -0.09688  -0.09595  -0.09108  -0.08954
 Alpha virt. eigenvalues --   -0.08585  -0.08421  -0.08200  -0.07764  -0.07597
 Alpha virt. eigenvalues --   -0.07216  -0.07067  -0.06523  -0.06211  -0.06153
 Alpha virt. eigenvalues --   -0.05744  -0.05253  -0.05128  -0.04933  -0.04797
 Alpha virt. eigenvalues --   -0.04504  -0.04393  -0.03927  -0.03887  -0.03714
 Alpha virt. eigenvalues --   -0.03211  -0.02955  -0.02825  -0.02429  -0.02166
 Alpha virt. eigenvalues --   -0.02083  -0.01843  -0.01688  -0.01334  -0.01218
 Alpha virt. eigenvalues --   -0.00817  -0.00397  -0.00242  -0.00140  -0.00023
 Alpha virt. eigenvalues --    0.00431   0.00510   0.00636   0.00829   0.01107
 Alpha virt. eigenvalues --    0.01307   0.01791   0.01984   0.02646   0.02705
 Alpha virt. eigenvalues --    0.02886   0.03029   0.03412   0.03504   0.03828
 Alpha virt. eigenvalues --    0.04105   0.04163   0.04357   0.04585   0.04725
 Alpha virt. eigenvalues --    0.05014   0.05193   0.05453   0.05710   0.05845
 Alpha virt. eigenvalues --    0.06052   0.06282   0.06658   0.06834   0.07048
 Alpha virt. eigenvalues --    0.07214   0.07542   0.07668   0.07933   0.08126
 Alpha virt. eigenvalues --    0.08504   0.08557   0.08579   0.08908   0.09106
 Alpha virt. eigenvalues --    0.09370   0.09548   0.09672   0.09897   0.10051
 Alpha virt. eigenvalues --    0.10326   0.10379   0.10493   0.10812   0.11221
 Alpha virt. eigenvalues --    0.11352   0.11479   0.11685   0.11874   0.12041
 Alpha virt. eigenvalues --    0.12410   0.12476   0.12570   0.12713   0.13148
 Alpha virt. eigenvalues --    0.13247   0.13305   0.13827   0.13876   0.14026
 Alpha virt. eigenvalues --    0.14154   0.14574   0.14800   0.14938   0.15212
 Alpha virt. eigenvalues --    0.15457   0.15681   0.15717   0.15888   0.16179
 Alpha virt. eigenvalues --    0.16239   0.16695   0.16844   0.16914   0.17333
 Alpha virt. eigenvalues --    0.17493   0.17639   0.17991   0.18419   0.18625
 Alpha virt. eigenvalues --    0.18858   0.19170   0.19547   0.19799   0.20149
 Alpha virt. eigenvalues --    0.20382   0.20710   0.20940   0.21187   0.21456
 Alpha virt. eigenvalues --    0.21664   0.21906   0.22432   0.22660   0.22804
 Alpha virt. eigenvalues --    0.22958   0.23249   0.23380   0.23907   0.24069
 Alpha virt. eigenvalues --    0.24469   0.24655   0.25136   0.25661   0.25945
 Alpha virt. eigenvalues --    0.26231   0.26625   0.26932   0.27220   0.27310
 Alpha virt. eigenvalues --    0.27421   0.28400   0.28624   0.28891   0.29153
 Alpha virt. eigenvalues --    0.29483   0.30284   0.30531   0.31441   0.31558
 Alpha virt. eigenvalues --    0.32067   0.32457   0.32984   0.33193   0.33557
 Alpha virt. eigenvalues --    0.34188   0.34758   0.35658   0.36090   0.36526
 Alpha virt. eigenvalues --    0.36739   0.37072   0.37738   0.38324   0.39305
 Alpha virt. eigenvalues --    0.40956   0.42029   0.42528   0.43162   0.44629
 Alpha virt. eigenvalues --    0.45366   0.46221   0.48569   0.49761   0.53739
 Alpha virt. eigenvalues --    0.54109   0.55367   0.55556   0.56131   0.56739
 Alpha virt. eigenvalues --    0.56821   0.57410   0.58146   0.58391   0.59302
 Alpha virt. eigenvalues --    0.59844   0.60273   0.60603   0.60811   0.62402
 Alpha virt. eigenvalues --    0.62752   0.62951   0.63216   0.63341   0.63616
 Alpha virt. eigenvalues --    0.64267   0.64342   0.64617   0.65384   0.66007
 Alpha virt. eigenvalues --    0.66152   0.66778   0.66847   0.67194   0.68073
 Alpha virt. eigenvalues --    0.68804   0.69053   0.69394   0.69749   0.70137
 Alpha virt. eigenvalues --    0.70503   0.70848   0.71199   0.72113   0.72731
 Alpha virt. eigenvalues --    0.73201   0.73375   0.73904   0.74494   0.75695
 Alpha virt. eigenvalues --    0.76094   0.76142   0.76751   0.77123   0.77726
 Alpha virt. eigenvalues --    0.78122   0.78600   0.78964   0.79027   0.79476
 Alpha virt. eigenvalues --    0.79902   0.80627   0.81111   0.81459   0.81921
 Alpha virt. eigenvalues --    0.82794   0.83359   0.83394   0.84154   0.85331
 Alpha virt. eigenvalues --    0.85660   0.86213   0.86675   0.86877   0.87674
 Alpha virt. eigenvalues --    0.87924   0.89127   0.89393   0.89683   0.90414
 Alpha virt. eigenvalues --    0.90751   0.91361   0.91919   0.93126   0.93386
 Alpha virt. eigenvalues --    0.93426   0.93550   0.94300   0.94676   0.94875
 Alpha virt. eigenvalues --    0.95951   0.96227   0.96819   0.96950   0.97856
 Alpha virt. eigenvalues --    0.98865   0.99151   0.99649   1.00114   1.00941
 Alpha virt. eigenvalues --    1.01386   1.01637   1.02160   1.02516   1.03100
 Alpha virt. eigenvalues --    1.03606   1.04394   1.04734   1.05090   1.06027
 Alpha virt. eigenvalues --    1.06421   1.06836   1.07632   1.07747   1.08594
 Alpha virt. eigenvalues --    1.09010   1.09976   1.10555   1.11070   1.11945
 Alpha virt. eigenvalues --    1.12235   1.12984   1.13617   1.14351   1.14510
 Alpha virt. eigenvalues --    1.15826   1.16695   1.17256   1.18927   1.20915
 Alpha virt. eigenvalues --    1.21348   1.22032   1.22934   1.23497   1.23702
 Alpha virt. eigenvalues --    1.23904   1.24635   1.25535   1.26091   1.27267
 Alpha virt. eigenvalues --    1.27963   1.28629   1.29219   1.29714   1.30362
 Alpha virt. eigenvalues --    1.30944   1.32290   1.33335   1.33822   1.34609
 Alpha virt. eigenvalues --    1.35365   1.36530   1.36774   1.38014   1.38311
 Alpha virt. eigenvalues --    1.39582   1.41425   1.42023   1.42600   1.43359
 Alpha virt. eigenvalues --    1.44531   1.45129   1.45882   1.47192   1.49156
 Alpha virt. eigenvalues --    1.49868   1.50797   1.51368   1.52997   1.54136
 Alpha virt. eigenvalues --    1.54992   1.55433   1.57818   1.58205   1.58555
 Alpha virt. eigenvalues --    1.60605   1.61460   1.61821   1.62693   1.65044
 Alpha virt. eigenvalues --    1.65125   1.66233   1.67192   1.68143   1.69374
 Alpha virt. eigenvalues --    1.70280   1.70928   1.71368   1.72316   1.73393
 Alpha virt. eigenvalues --    1.74064   1.74434   1.75559   1.76164   1.76349
 Alpha virt. eigenvalues --    1.76719   1.77394   1.77870   1.78796   1.79215
 Alpha virt. eigenvalues --    1.79509   1.81029   1.82027   1.82516   1.83282
 Alpha virt. eigenvalues --    1.83746   1.83999   1.85284   1.86032   1.86885
 Alpha virt. eigenvalues --    1.87036   1.88190   1.89204   1.90476   1.91150
 Alpha virt. eigenvalues --    1.91881   1.93034   1.93794   1.94251   1.94560
 Alpha virt. eigenvalues --    1.95489   1.96347   1.97216   1.97391   1.98600
 Alpha virt. eigenvalues --    1.99371   2.00435   2.00798   2.01750   2.02321
 Alpha virt. eigenvalues --    2.02629   2.04400   2.04733   2.05448   2.06968
 Alpha virt. eigenvalues --    2.07361   2.08645   2.09221   2.09607   2.10221
 Alpha virt. eigenvalues --    2.11552   2.11616   2.12286   2.12563   2.13044
 Alpha virt. eigenvalues --    2.13482   2.14065   2.14743   2.15254   2.15974
 Alpha virt. eigenvalues --    2.16852   2.17402   2.18384   2.19094   2.19465
 Alpha virt. eigenvalues --    2.20900   2.20966   2.21890   2.22289   2.24350
 Alpha virt. eigenvalues --    2.26721   2.27129   2.28521   2.29800   2.30599
 Alpha virt. eigenvalues --    2.31556   2.34054   2.36357   2.37016   2.37362
 Alpha virt. eigenvalues --    2.38959   2.39299   2.39930   2.40959   2.43237
 Alpha virt. eigenvalues --    2.43650   2.44507   2.46205   2.47907   2.49140
 Alpha virt. eigenvalues --    2.49905   2.51711   2.52690   2.53756   2.54808
 Alpha virt. eigenvalues --    2.55706   2.58541   2.59382   2.61089   2.63240
 Alpha virt. eigenvalues --    2.64812   2.66922   2.68815   2.69935   2.70895
 Alpha virt. eigenvalues --    2.71573   2.73195   2.73628   2.75484   2.76075
 Alpha virt. eigenvalues --    2.79649   2.80931   2.82616   2.87098   2.89226
 Alpha virt. eigenvalues --    2.93068   2.96496   3.00537   3.04337   3.12691
 Alpha virt. eigenvalues --    3.16555   3.26708  22.08602
          Condensed to atoms (all electrons):
 Mulliken charges:
               1
     1  C   -0.012954
     2  C   -0.480853
     3  C   -0.239714
     4  C   -0.074973
     5  H    0.253948
     6  C   -0.305402
     7  N    0.199662
     8  H    0.250545
     9  H    0.263297
    10  Cl   0.410977
    11  C   -0.565772
    12  O   -0.188894
    13  N    0.355028
    14  C   -0.318531
    15  H    0.240646
    16  H    0.252370
    17  C   -0.213927
    18  C   -0.628073
    19  H    0.226931
    20  Pd  -0.422772
    21  C   -0.408412
    22  C   -0.386696
    23  C    0.452343
    24  C   -0.206019
    25  C   -0.761844
    26  H    0.247581
    27  C   -0.025472
    28  H    0.226896
    29  H    0.237653
    30  C    0.114951
    31  C   -0.546578
    32  C   -0.438571
    33  H    0.191373
    34  H    0.198451
    35  C    0.132425
    36  O   -0.322039
    37  H    0.241083
    38  C   -0.588631
    39  H    0.262173
    40  H    0.239372
    41  H    0.247628
    42  O   -0.614843
    43  H    0.528210
    44  H    0.278199
    45  H    0.242883
    46  C   -0.388643
    47  H    0.253168
    48  H    0.225282
    49  H    0.263807
    50  H    0.213413
    51  H    0.234615
    52  H    0.241049
    53  H    0.252126
    54  C   -0.249534
    55  H    0.237807
    56  H    0.229516
    57  H    0.225619
    58  C   -0.306012
    59  H    0.233148
    60  H    0.239442
    61  H    0.222908
    62  C   -0.335295
    63  H    0.234507
    64  H    0.199836
    65  H    0.229586
 Sum of Mulliken charges =   1.00000
 Mulliken charges with hydrogens summed into heavy atoms:
               1
     1  C   -0.012954
     2  C   -0.217556
     3  C    0.010831
     4  C    0.178975
     6  C   -0.305402
     7  N    0.199662
    10  Cl   0.410977
    11  C   -0.565772
    12  O   -0.188894
    13  N    0.355028
    14  C    0.174485
    17  C    0.013004
    18  C   -0.628073
    20  Pd  -0.422772
    21  C    0.084763
    22  C    0.061332
    23  C    0.941008
    24  C   -0.206019
    25  C   -0.761844
    27  C    0.717276
    30  C    0.504775
    31  C   -0.546578
    32  C   -0.195688
    35  C    0.132425
    36  O   -0.322039
    38  C    0.160542
    42  O   -0.086633
    46  C    0.353614
    54  C    0.443408
    58  C    0.389485
    62  C    0.328633
 APT charges:
               1
     1  C    0.126675
     2  C   -0.161978
     3  C    0.195542
     4  C   -0.161342
     5  H    0.090933
     6  C    0.528263
     7  N   -0.459382
     8  H    0.071436
     9  H    0.099436
    10  Cl  -0.275079
    11  C    0.880333
    12  O   -0.727030
    13  N   -0.702514
    14  C    0.301093
    15  H    0.036142
    16  H    0.011589
    17  C    0.215684
    18  C    0.105381
    19  H   -0.020873
    20  Pd   0.177849
    21  C   -0.056587
    22  C    0.099920
    23  C   -0.047628
    24  C    0.355264
    25  C   -0.454508
    26  H    0.023801
    27  C   -0.117429
    28  H    0.038161
    29  H    0.023782
    30  C    0.513293
    31  C    0.305208
    32  C    0.172089
    33  H   -0.042725
    34  H   -0.054819
    35  C    1.009276
    36  O   -0.775850
    37  H   -0.025291
    38  C   -0.043520
    39  H    0.033114
    40  H    0.022359
    41  H    0.029603
    42  O   -0.718657
    43  H    0.292868
    44  H    0.034388
    45  H    0.023845
    46  C   -0.007240
    47  H    0.026190
    48  H    0.001783
    49  H    0.031882
    50  H   -0.033228
    51  H   -0.019491
    52  H    0.011299
    53  H    0.017635
    54  C   -0.003916
    55  H    0.008232
    56  H   -0.011003
    57  H    0.000012
    58  C    0.010641
    59  H    0.001992
    60  H    0.000446
    61  H    0.001332
    62  C    0.012867
    63  H   -0.009031
    64  H   -0.014642
    65  H    0.002129
 Sum of APT charges =   1.00000
 APT charges with hydrogens summed into heavy atoms:
               1
     1  C    0.126675
     2  C   -0.062541
     3  C    0.266978
     4  C   -0.070409
     6  C    0.528263
     7  N   -0.459382
    10  Cl  -0.275079
    11  C    0.880333
    12  O   -0.727030
    13  N   -0.702514
    14  C    0.348824
    17  C    0.194811
    18  C    0.105381
    20  Pd   0.177849
    21  C   -0.027653
    22  C    0.047201
    23  C   -0.049118
    24  C    0.355264
    25  C   -0.454508
    27  C   -0.021098
    30  C    0.415748
    31  C    0.305208
    32  C    0.195935
    35  C    1.009276
    36  O   -0.775850
    38  C    0.041555
    42  O   -0.425789
    46  C    0.052615
    54  C   -0.006676
    58  C    0.014411
    62  C   -0.008677
 Electronic spatial extent (au):  <R**2>=          12796.5970
 Charge=              1.0000 electrons
 Dipole moment (field-independent basis, Debye):
    X=             -3.7667    Y=              1.7833    Z=             -1.0245  Tot=              4.2916
 Quadrupole moment (field-independent basis, Debye-Ang):
   XX=           -162.3608   YY=           -157.9671   ZZ=           -192.4248
   XY=             -7.0861   XZ=            -15.6212   YZ=             13.0823
 Traceless Quadrupole moment (field-independent basis, Debye-Ang):
   XX=              8.5568   YY=             12.9505   ZZ=            -21.5072
   XY=             -7.0861   XZ=            -15.6212   YZ=             13.0823
 Octapole moment (field-independent basis, Debye-Ang**2):
  XXX=           -155.8409  YYY=             -5.0629  ZZZ=            -47.2205  XYY=            -31.3854
  XXY=             46.7589  XXZ=            -54.2518  XZZ=            -64.4418  YZZ=            -15.3554
  YYZ=             14.2996  XYZ=            -42.2306
 Hexadecapole moment (field-independent basis, Debye-Ang**3):
 XXXX=          -7400.7799 YYYY=          -6081.6342 ZZZZ=          -2331.5950 XXXY=           -155.6951
 XXXZ=           -189.0536 YYYX=            -76.2318 YYYZ=            185.5330 ZZZX=             16.8940
 ZZZY=            128.6807 XXYY=          -1941.6381 XXZZ=          -1711.7600 YYZZ=          -1259.7606
 XXYZ=            259.9478 YYXZ=            -44.9939 ZZXY=            118.0900
 N-N= 3.989842333240D+03 E-N=-1.226606751743D+04  KE= 1.766346396206D+03
  Exact polarizability: 407.381  -1.511 339.802   9.841  26.229 281.233
 Approx polarizability: 584.100  11.162 491.722  45.601  65.671 462.854
   1 Symmetry operations used in ECPInt.
 ECPInt:  NShTT=   25878 NPrTT=  135610 LenC2=   23202 LenP2D=   72358.
 LDataN:  DoStor=T MaxTD1= 7 Len=  274
 Calling FoFJK, ICntrl=    100127 FMM=F ISym2X=0 I1Cent= 0 IOpClX= 0 NMat=1 NMatS=1 NMatT=0.
 Defaulting to unpruned grid for atomic number  46.
 Defaulting to unpruned grid for atomic number  46.
 Defaulting to unpruned grid for atomic number  46.
 Defaulting to unpruned grid for atomic number  46.
 Defaulting to unpruned grid for atomic number  46.
 Defaulting to unpruned grid for atomic number  46.
 Defaulting to unpruned grid for atomic number  46.
 Defaulting to unpruned grid for atomic number  46.
 Defaulting to unpruned grid for atomic number  46.
 Defaulting to unpruned grid for atomic number  46.
 Defaulting to unpruned grid for atomic number  46.
 Defaulting to unpruned grid for atomic number  46.
 Defaulting to unpruned grid for atomic number  46.
 Defaulting to unpruned grid for atomic number  46.
 Defaulting to unpruned grid for atomic number  46.
 Defaulting to unpruned grid for atomic number  46.
 Defaulting to unpruned grid for atomic number  46.
 Defaulting to unpruned grid for atomic number  46.
 Defaulting to unpruned grid for atomic number  46.
 Defaulting to unpruned grid for atomic number  46.
 Defaulting to unpruned grid for atomic number  46.
 Defaulting to unpruned grid for atomic number  46.
 Defaulting to unpruned grid for atomic number  46.
 Defaulting to unpruned grid for atomic number  46.
 Defaulting to unpruned grid for atomic number  46.
 Defaulting to unpruned grid for atomic number  46.
 Defaulting to unpruned grid for atomic number  46.
 Defaulting to unpruned grid for atomic number  46.
 Full mass-weighted force constant matrix:
 Low frequencies --- -234.6415  -12.8731   -0.0036   -0.0022   -0.0018    7.3996
 Low frequencies ---    9.9100   21.1230   37.1717
 ******    1 imaginary frequencies (negative Signs) ****** 
 Diagonal vibrational polarizability:
      133.6314543      94.2899812      55.9585736
 Harmonic frequencies (cm**-1), IR intensities (KM/Mole), Raman scattering
 activities (A**4/AMU), depolarization ratios for plane and unpolarized
 incident light, reduced masses (AMU), force constants (mDyne/A),
 and normal coordinates:
                           1         2         3         4         5
                           A         A         A         A         A
       Frequencies ---  -234.6400   20.5652   36.7822   49.3247   51.8275
    Reduced masses ---     8.2293    5.7465    4.9508    4.7777    4.4059
   Force constants ---     0.2669    0.0014    0.0039    0.0068    0.0070
    IR Intensities ---     2.1022    0.7383    1.5033    2.0434    0.8078
 Coord Atom Element:
   1     1     6         -0.01336   0.01915   0.02734  -0.00927   0.00866
   2     1     6         -0.00271   0.00073  -0.06147  -0.02477  -0.00630
   3     1     6          0.00027   0.00560   0.05401  -0.03429   0.03842
   1     2     6         -0.00551   0.04845   0.01463  -0.00629   0.00410
   2     2     6         -0.00027  -0.01036  -0.15188  -0.05899  -0.01552
   3     2     6          0.00295   0.04477   0.16009   0.01284   0.04566
   1     3     6         -0.00574   0.04713   0.01183  -0.00830   0.00379
   2     3     6          0.00381  -0.01874  -0.18744  -0.08697  -0.01311
   3     3     6          0.00337   0.11237   0.18857   0.05906   0.03197
   1     4     6         -0.01041   0.01485   0.02027  -0.01619   0.00872
   2     4     6          0.00690  -0.01525  -0.11456  -0.07720   0.00397
   3     4     6          0.00401   0.13678   0.10095   0.05525   0.00842
   1     5     1         -0.01065   0.00981   0.01860  -0.02028   0.01017
   2     5     1          0.00949  -0.02226  -0.12386  -0.09766   0.01208
   3     5     1          0.00778   0.18890   0.11496   0.09195  -0.00460
   1     6     6         -0.01191  -0.01301   0.03375  -0.01938   0.01390
   2     6     6          0.00841  -0.00224  -0.02193  -0.04041   0.01290
   3     6     6          0.00050   0.09082  -0.00692   0.00401   0.00184
   1     7     7         -0.01582  -0.00895   0.03527  -0.01452   0.01120
   2     7     7          0.00602   0.00480  -0.00436  -0.01627   0.00548
   3     7     7         -0.00360   0.02554  -0.02277  -0.03970   0.02088
   1     8     1         -0.00274   0.06947   0.00077  -0.00563  -0.00041
   2     8     1          0.00476  -0.02882  -0.26386  -0.11668  -0.02106
   3     8     1          0.00485   0.14582   0.27729   0.09990   0.03846
   1     9     1         -0.00365   0.07060   0.00598  -0.00283   0.00009
   2     9     1         -0.00306  -0.01357  -0.19343  -0.06628  -0.02370
   3     9     1          0.00438   0.02559   0.21990   0.01801   0.06018
   1    10    17         -0.00948  -0.06378   0.06192  -0.03543   0.03609
   2    10    17          0.00783   0.00746   0.07838  -0.03047   0.03705
   3    10    17         -0.00368   0.12121  -0.12113   0.00744  -0.03799
   1    11     6         -0.01551   0.01430   0.02555  -0.00926   0.00845
   2    11     6         -0.01406   0.00368  -0.02528  -0.01046  -0.01450
   3    11     6         -0.00077  -0.04229   0.02020  -0.04773   0.03652
   1    12     8         -0.01173   0.02982   0.01787  -0.01369   0.02840
   2    12     8         -0.01377   0.00604  -0.01671  -0.04652  -0.01677
   3    12     8         -0.01200  -0.06353   0.01520   0.00960   0.01671
   1    13     7         -0.01998  -0.00274   0.02548  -0.00364  -0.01055
   2    13     7         -0.02578  -0.00326  -0.00178   0.01988  -0.03088
   3    13     7          0.00266  -0.04802  -0.00468  -0.07657   0.04031
   1    14     6         -0.01162   0.02274   0.01940  -0.00979   0.02201
   2    14     6         -0.01740  -0.00784   0.03270  -0.04529  -0.04543
   3    14     6         -0.00774  -0.07729  -0.03504   0.03138   0.00694
   1    15     1         -0.01164   0.02920  -0.02255  -0.00255   0.03844
   2    15     1         -0.01864  -0.01436   0.05296  -0.04305  -0.05806
   3    15     1         -0.01323  -0.09086  -0.05540   0.06293  -0.00760
   1    16     1         -0.01295   0.02690   0.06935  -0.02744   0.02072
   2    16     1         -0.01270  -0.00541   0.04913  -0.06097  -0.04256
   3    16     1         -0.00582  -0.07746  -0.04948   0.03040   0.00854
   1    17     6         -0.01086   0.00155   0.01449   0.01399  -0.00772
   2    17     6         -0.01803  -0.01940   0.02587  -0.01481  -0.05516
   3    17     6         -0.00523  -0.06610  -0.03140   0.00283   0.01759
   1    18     6         -0.00932   0.00275  -0.02550   0.11899  -0.01788
   2    18     6         -0.00763  -0.04711   0.02152   0.01099  -0.07735
   3    18     6         -0.00072  -0.07728  -0.04123   0.03952   0.00505
   1    19     1         -0.00306  -0.00962   0.03474  -0.02205  -0.01942
   2    19     1         -0.00900  -0.02562   0.03884  -0.03991  -0.06251
   3    19     1         -0.00519  -0.05674  -0.03981   0.01465   0.01985
   1    20    46          0.05765   0.00436   0.01215  -0.01397  -0.01645
   2    20    46         -0.05710  -0.00051   0.00527   0.00121  -0.01270
   3    20    46          0.01784  -0.03196  -0.03107  -0.05345   0.02309
   1    21     6          0.02748   0.01881  -0.01764  -0.00402   0.01594
   2    21     6         -0.01670   0.07205  -0.02905   0.05794   0.10578
   3    21     6          0.00854   0.16101   0.04915   0.00331  -0.02022
   1    22     6          0.08382   0.07095  -0.01182  -0.00174  -0.02431
   2    22     6          0.00249   0.04929  -0.07487   0.02038   0.04230
   3    22     6         -0.01041   0.13317   0.03099  -0.01066  -0.02687
   1    23     6          0.05222   0.08302  -0.01160  -0.00081  -0.01863
   2    23     6          0.16555   0.01180  -0.07485   0.01233  -0.00199
   3    23     6         -0.02394   0.06767   0.03692  -0.01057   0.01056
   1    24     6          0.19786   0.01297  -0.01239  -0.00729  -0.00964
   2    24     6          0.44567   0.01495  -0.01821   0.02716  -0.00060
   3    24     6         -0.06585   0.02206   0.01656  -0.02042   0.01539
   1    25     6          0.08764  -0.05057  -0.01502  -0.01690  -0.00311
   2    25     6          0.11070   0.02700   0.02023   0.04876   0.02632
   3    25     6          0.01832   0.05058   0.00967  -0.02089   0.00543
   1    26     1          0.12467   0.11353  -0.00567   0.00040  -0.04873
   2    26     1          0.11457  -0.01793  -0.11473  -0.00477  -0.03104
   3    26     1         -0.08074   0.03758   0.01295  -0.02032   0.01022
   1    27     6         -0.14805   0.02953  -0.04392   0.02340  -0.05501
   2    27     6          0.01832  -0.06673   0.08838   0.02556  -0.01999
   3    27     6          0.01649  -0.04270  -0.02995   0.07040  -0.06868
   1    28     1         -0.11615   0.01315  -0.03066   0.00847  -0.04178
   2    28     1          0.07322  -0.07280   0.08474   0.01382  -0.01671
   3    28     1          0.04983  -0.00681  -0.07656   0.08540  -0.09815
   1    29     1         -0.07093   0.03579  -0.06186   0.05612  -0.08991
   2    29     1          0.01617  -0.09550   0.12370   0.04933  -0.02293
   3    29     1         -0.01424  -0.03442  -0.03604   0.04726  -0.05272
   1    30     6         -0.10837  -0.00240   0.00129  -0.08990   0.05286
   2    30     6         -0.01373   0.05773  -0.01049  -0.04528  -0.00289
   3    30     6         -0.04081  -0.06507  -0.00418   0.06384  -0.05286
   1    31     6         -0.18787   0.01409  -0.01994  -0.01972  -0.01178
   2    31     6         -0.09598  -0.00717   0.03086   0.00260  -0.01596
   3    31     6         -0.00964  -0.06045  -0.00360   0.02942  -0.02642
   1    32     6         -0.36207   0.02644  -0.03592  -0.00768  -0.01813
   2    32     6         -0.15533  -0.00199   0.01997   0.00978  -0.00522
   3    32     6         -0.02488  -0.10641   0.04992  -0.01207   0.02770
   1    33     1         -0.10543   0.00558   0.01649  -0.07699   0.03652
   2    33     1         -0.02536   0.08083  -0.00330  -0.02883  -0.02681
   3    33     1         -0.06798  -0.02769  -0.04232   0.06835  -0.06910
   1    34     1         -0.07438  -0.00630   0.01695  -0.11708   0.07543
   2    34     1          0.01523   0.07953  -0.05258  -0.11349   0.04826
   3    34     1          0.00570  -0.06406   0.00262   0.01828  -0.01624
   1    35     6          0.05278  -0.05532  -0.01645  -0.01334   0.01000
   2    35     6         -0.01915   0.04879   0.01763   0.08392   0.12012
   3    35     6          0.03515   0.12698   0.02012  -0.01961  -0.03318
   1    36     8          0.06960  -0.11612  -0.01693  -0.01846   0.01854
   2    36     8         -0.04095   0.04523   0.05631   0.13523   0.22219
   3    36     8          0.03392   0.16338   0.00328  -0.03945  -0.08321
   1    37     1         -0.07842   0.11771  -0.01489   0.00327   0.00826
   2    37     1          0.16067   0.00499  -0.08125   0.00925  -0.00805
   3    37     1          0.12193   0.08733   0.08665   0.00830   0.03531
   1    38     6         -0.03098   0.04851  -0.08033   0.03669  -0.04972
   2    38     6          0.06249  -0.06719   0.07019   0.00753   0.03080
   3    38     6          0.00625  -0.14894   0.08903  -0.02142   0.05545
   1    39     1          0.09444   0.05235  -0.09639   0.04760  -0.04814
   2    39     1         -0.05118  -0.06922   0.08254  -0.00194   0.02940
   3    39     1          0.15342  -0.17658   0.10956  -0.01086   0.06551
   1    40     1          0.02957   0.05261  -0.09029   0.04406  -0.05174
   2    40     1          0.21800  -0.06303   0.05105   0.02259   0.03194
   3    40     1         -0.07777  -0.18432   0.13016  -0.04790   0.09071
   1    41     1         -0.03870   0.06185  -0.09000   0.04766  -0.06864
   2    41     1          0.09913  -0.10692   0.11176   0.00017   0.05584
   3    41     1         -0.01899  -0.12046   0.06067  -0.01425   0.03522
   1    42     8         -0.07242  -0.02033  -0.02498  -0.14021   0.10560
   2    42     8         -0.02359   0.06404  -0.00317  -0.03186  -0.01741
   3    42     8         -0.07643  -0.12066   0.03954   0.15814  -0.11010
   1    43     1         -0.14768  -0.01367  -0.01730  -0.20051   0.15615
   2    43     1         -0.00036   0.10172  -0.02370  -0.05627  -0.01348
   3    43     1         -0.03789  -0.13390   0.04005   0.19978  -0.14096
   1    44     1         -0.19526   0.05123  -0.06030   0.03448  -0.06317
   2    44     1          0.04639  -0.08093   0.10077   0.02806  -0.02018
   3    44     1          0.06185  -0.07435   0.00264   0.10843  -0.08697
   1    45     1         -0.04425   0.02737  -0.02851  -0.02867   0.01321
   2    45     1          0.11818   0.05804  -0.02898   0.01915  -0.02549
   3    45     1         -0.02003  -0.13977   0.08042  -0.02702   0.05319
   1    46     6          0.05406  -0.11152  -0.01583  -0.02689  -0.00302
   2    46     6          0.09605   0.02045   0.07005   0.04283   0.02016
   3    46     6          0.01326   0.01929  -0.01019  -0.02359   0.00845
   1    47     1          0.07752  -0.13386  -0.00523  -0.02026  -0.03631
   2    47     1          0.06088   0.02577   0.07466   0.03343   0.03764
   3    47     1          0.10653   0.03267  -0.04186  -0.00230  -0.01079
   1    48     1          0.06024  -0.10666  -0.01461  -0.02443  -0.00770
   2    48     1          0.13488   0.00809   0.07581   0.05315  -0.02187
   3    48     1         -0.02842  -0.02373  -0.01827  -0.03258   0.02176
   1    49     1         -0.02128  -0.13775  -0.02765  -0.04233   0.02991
   2    49     1          0.02350   0.02561   0.09551   0.02923   0.03867
   3    49     1         -0.02230   0.02992   0.01210  -0.02928   0.01409
   1    50     1          0.17766   0.05003  -0.01154  -0.00479  -0.05395
   2    50     1         -0.01600   0.05284  -0.07906   0.01777   0.04280
   3    50     1         -0.03875   0.12980  -0.00506  -0.03759  -0.07092
   1    51     1          0.04652   0.11958  -0.00974   0.00352  -0.02618
   2    51     1         -0.07127   0.05407  -0.10383   0.00154   0.02688
   3    51     1          0.00964   0.16149   0.05000   0.00420  -0.01876
   1    52     1         -0.01224   0.04762  -0.02594   0.00150   0.05507
   2    52     1         -0.01258   0.06707  -0.02367   0.06001   0.10412
   3    52     1         -0.00588   0.15597   0.08832   0.03081   0.01756
   1    53     1          0.03375   0.00764  -0.01673  -0.00564   0.01134
   2    53     1         -0.05879   0.10457  -0.03199   0.06819   0.14942
   3    53     1          0.01894   0.21379   0.04519   0.00192  -0.04644
   1    54     6         -0.00721   0.00744  -0.10773   0.20940   0.09289
   2    54     6         -0.00624  -0.04876  -0.03457   0.06901   0.00220
   3    54     6         -0.00030  -0.09772  -0.06089   0.04713   0.05511
   1    55     1         -0.00471   0.01139  -0.11802   0.26084   0.06320
   2    55     1         -0.00480  -0.06175  -0.02065   0.07610  -0.02686
   3    55     1          0.00091  -0.10204  -0.05779   0.06241   0.03635
   1    56     1         -0.00764   0.00708  -0.09490   0.19715   0.07473
   2    56     1         -0.00474  -0.04569  -0.10937   0.13614   0.11282
   3    56     1         -0.00272  -0.09717  -0.07888   0.01756   0.13246
   1    57     1         -0.00773   0.00794  -0.17318   0.23930   0.22049
   2    57     1         -0.00736  -0.04097  -0.01874   0.03996  -0.01518
   3    57     1          0.00106  -0.10623  -0.05743   0.06958   0.03421
   1    58     6         -0.00828   0.00440  -0.04573   0.14198   0.01018
   2    58     6         -0.00523  -0.05590   0.11804  -0.08467  -0.22772
   3    58     6          0.00524  -0.08542  -0.05239   0.12716  -0.06381
   1    59     1         -0.00741  -0.00109   0.01832   0.07257  -0.08199
   2    59     1         -0.00414  -0.05576   0.16822  -0.13577  -0.30533
   3    59     1          0.00608  -0.06164  -0.00802   0.09917  -0.16068
   1    60     1         -0.00737   0.00633  -0.07233   0.21598  -0.00307
   2    60     1         -0.00415  -0.08375   0.09021  -0.04153  -0.19141
   3    60     1          0.00592  -0.09669  -0.07133   0.16537  -0.05204
   1    61     1         -0.01070   0.00891  -0.09735   0.15582   0.13326
   2    61     1         -0.00461  -0.03706   0.17536  -0.15311  -0.31269
   3    61     1          0.00551  -0.10564  -0.08749   0.18838  -0.03030
   1    62     6          0.00003  -0.00070   0.03613   0.10722  -0.16982
   2    62     6         -0.00444  -0.06849  -0.02594   0.07166  -0.02898
   3    62     6         -0.00565  -0.05739  -0.01707  -0.01116   0.00715
   1    63     1         -0.00550  -0.00553   0.00988   0.18502  -0.15946
   2    63     1          0.00271  -0.08615  -0.03504   0.08532  -0.04470
   3    63     1         -0.00404  -0.06618  -0.02823   0.01617   0.00341
   1    64     1          0.01170   0.00181   0.09475   0.03689  -0.27071
   2    64     1          0.00128  -0.06561   0.01118   0.03007  -0.09213
   3    64     1         -0.01037  -0.04220   0.00968  -0.01510  -0.02876
   1    65     1          0.00186  -0.00045   0.05030   0.09269  -0.19503
   2    65     1         -0.01527  -0.07061  -0.09332   0.14533   0.08932
   3    65     1         -0.00704  -0.04944  -0.01096  -0.06998   0.04318
                           6         7         8         9        10
                           A         A         A         A         A
       Frequencies ---    57.3924   62.6770   68.7878   81.4244   90.9770
    Reduced masses ---     5.4329    4.6477    5.0503    4.4187    4.9528
   Force constants ---     0.0105    0.0108    0.0141    0.0173    0.0242
    IR Intensities ---     0.8115    1.1339    0.1622    2.0804    1.0066
 Coord Atom Element:
   1     1     6          0.01992  -0.03330   0.05097  -0.00031  -0.01095
   2     1     6         -0.01962   0.02444  -0.02348  -0.02630   0.01443
   3     1     6          0.02719  -0.02377  -0.00432  -0.05181   0.02413
   1     2     6          0.03509  -0.03087   0.08499   0.01247  -0.00017
   2     2     6          0.03437   0.02275   0.01630  -0.02628   0.04452
   3     2     6         -0.02967  -0.01801  -0.02787  -0.04115  -0.00412
   1     3     6          0.04065  -0.03268   0.08786   0.01248   0.00219
   2     3     6          0.10737  -0.01004   0.06622  -0.02754   0.07331
   3     3     6         -0.09602   0.03254  -0.03319  -0.01318  -0.01945
   1     4     6          0.03475  -0.03906   0.05586  -0.00035  -0.00614
   2     4     6          0.10885  -0.03800   0.06201  -0.02830   0.05260
   3     4     6         -0.09140   0.06904  -0.00170  -0.00012   0.01068
   1     5     1          0.04093  -0.04366   0.05669  -0.00220  -0.00583
   2     5     1          0.15644  -0.06766   0.09397  -0.03004   0.05927
   3     5     1         -0.14012   0.10770   0.00177   0.01939   0.00984
   1     6     6          0.01862  -0.04118   0.02141  -0.01329  -0.01603
   2     6     6          0.04250  -0.02571   0.01164  -0.02719   0.01978
   3     6     6         -0.02096   0.05072   0.03003  -0.01488   0.04255
   1     7     7          0.01158  -0.03509   0.01822  -0.01110  -0.01614
   2     7     7         -0.01335   0.00111  -0.01958  -0.02960   0.01247
   3     7     7          0.02676   0.00709   0.02139  -0.03921   0.03210
   1     8     1          0.05297  -0.02999   0.11439   0.02249   0.01151
   2     8     1          0.15895  -0.01643   0.10514  -0.02867   0.10314
   3     8     1         -0.15146   0.04321  -0.05921  -0.00260  -0.04951
   1     9     1          0.04538  -0.02731   0.10818   0.02249   0.00815
   2     9     1          0.02485   0.04249   0.01062  -0.02618   0.04672
   3     9     1         -0.02915  -0.04608  -0.04540  -0.05197  -0.01561
   1    10    17          0.00027  -0.06818  -0.00974  -0.05153  -0.03962
   2    10    17          0.03324  -0.04383  -0.01946  -0.01525  -0.02542
   3    10    17          0.00235   0.08681   0.08404   0.00149   0.10042
   1    11     6          0.02111  -0.03297   0.04872  -0.00001  -0.01098
   2    11     6         -0.05262   0.04249  -0.05725  -0.01770  -0.00248
   3    11     6          0.06301  -0.02993  -0.01744  -0.06182   0.04553
   1    12     8          0.01631  -0.05773   0.07115  -0.00627  -0.01278
   2    12     8         -0.05295   0.07515  -0.12367  -0.02759   0.00041
   3    12     8          0.06881  -0.04828   0.05132  -0.03902   0.04695
   1    13     7          0.02466  -0.00655   0.02117   0.00764  -0.00458
   2    13     7         -0.05009   0.02289  -0.01081   0.00129  -0.00683
   3    13     7          0.06350   0.01126  -0.08990  -0.07683   0.05652
   1    14     6          0.01697  -0.04736   0.06124  -0.00404  -0.01181
   2    14     6         -0.02633   0.07761  -0.10401  -0.02623   0.01029
   3    14     6          0.04661   0.00567  -0.00734  -0.02609   0.04440
   1    15     1         -0.00475  -0.05226   0.05167   0.00537  -0.01899
   2    15     1         -0.01451   0.07522  -0.08978  -0.02390   0.01281
   3    15     1          0.04169  -0.01954   0.03412   0.01251   0.03564
   1    16     1          0.04245  -0.06665   0.09152  -0.02193  -0.00109
   2    16     1         -0.02145   0.12309  -0.15453  -0.05822   0.02077
   3    16     1          0.03690   0.03858  -0.04883  -0.03429   0.04429
   1    17     6          0.01426  -0.00177   0.03080   0.00642  -0.01158
[...]
 462,-0.00000123,0.00002402,0.00034210,0.00008092,0.00004608,-0.0000028
 2,-0.00007416,0.00020117,-0.00006506,-0.00026117,-0.00003138,-0.000063
 75,0.00013094,0.00009223,0.00024200,0.00017287,-0.00001718,-0.00003328
 ,-0.00000291,-0.00000348,0.00000501,0.00000370,0.00000324,0.00000234,-
 0.00000826,0.00001853,0.00001670,0.00005363,0.00008206,0.00007774,-0.0
 0000767,-0.00002972,0.00002168,0.00000805,-0.00001529,-0.00000047,-0.0
 0000210,0.00000909,0.00000049,0.00001208,-0.00007328,-0.00007865,-0.00
 013984,0.00006194,0.00006630,0.00011959,-0.00000404,-0.00007622,0.0001
 0414,-0.00000899,-0.00001546,-0.00000567,-0.00000347,-0.00000507,0.000
 00708,0.00000262,0.00000755,-0.00000169,0.00000359,0.00000421,0.000000
 18,-0.00003709,-0.00004720,-0.00004428,0.00000090,0.00000185,0.0000128
 7,-0.00000810,-0.00000004,0.00000859,0.00001763,0.00000780,0.00001283,
 0.00000957,0.00000835,-0.00000638,-0.00000966,0.00001010,0.00001681,-0
 .00000331,0.00000088,-0.00000292,-0.00000073,0.00000323,0.00001028,-0.
 00030100,-0.00027610,-0.00006895,0.00002081,-0.00014094,0.00000855,0.0
 0001152,-0.00002018,0.00006703,0.00000916,0.00000676,0.00002259,0.0000
 7890,0.00119938,-0.00098841,0.00002205,-0.00060063,-0.00006912,0.00005
 279,-0.00002946,0.00008185,-0.00010210,0.00025566,0.00020346,0.0008426
 5,0.00089364,-0.00023147,-0.00003237,-0.00005309,0.00019470,-0.0002683
 3,-0.00004255,0.00016893,0.00031079,0.00002751,0.00009308,-0.02596425,
 -0.08556863,0.09315415,0.02939429,0.09193912,-0.00008435,0.00000500,0.
 00001525,0.00009460,-0.00001285,-0.00001054,-0.00005777,-0.00000788,-0
 .00000510,0.00003096,0.00005400,0.00004410,0.00000002,0.00000088,0.000
 00179,-0.00000624,-0.00008410,-0.00009271,0.00005234,0.00001537,0.0000
 0665,0.00000634,0.00000041,-0.00000245,-0.00001679,0.00001880,0.000005
 87,0.00003296,0.00004026,0.00004179,-0.00020197,0.00011207,0.00009636,
 0.00043366,-0.00028283,-0.00019448,-0.00013912,-0.00004934,0.00037111,
 0.00009390,0.00131727,-0.00081613,-0.00001243,-0.00007311,0.00004614,0
 .00001758,-0.00030557,-0.00033731,-0.00141543,-0.00463636,-0.00212700,
 0.00557055,0.00960258,-0.02194966,-0.00007090,-0.00001333,0.00032936,-
 0.00009052,-0.00013606,-0.00005799,0.00000364,0.00001490,0.00001778,-0
 .00004949,-0.00008555,0.00001621,0.00001644,-0.00005333,0.00002343,0.0
 0001295,-0.00007256,-0.00003228,-0.00001338,0.00001935,0.00002747,-0.0
 0001486,0.00001639,-0.00003617,0.00001525,0.00002768,0.00000056,-0.000
 00139,-0.00000593,-0.00000258,-0.00000078,-0.00000575,0.00000444,-0.00
 001095,-0.00000586,-0.00005089,-0.00002642,-0.00002523,0.00001872,0.00
 001777,-0.00003868,0.00001633,0.00000638,-0.00000125,0.00000030,-0.000
 00383,0.00000603,0.00000059,0.00006309,-0.00006396,-0.00002383,-0.0000
 2443,0.00004141,0.00001513,-0.00000039,0.00000627,0.00000143,0.0000074
 4,0.00001036,0.00000375,0.00000298,0.00000090,-0.00000165,-0.00000415,
 -0.00000419,-0.00000189,-0.00000418,-0.00000317,0.00000270,0.00001901,
 0.00003179,0.00003807,0.00000081,-0.00000048,-0.00000834,0.00000460,-0
 .00000033,-0.00000792,-0.00000210,0.00000635,-0.00000376,-0.00001488,-
 0.00001502,-0.00000302,0.00000016,0.00000525,0.00002794,-0.00000214,-0
 .00000242,0.00000338,0.00000122,0.00001331,0.00000225,0.00004218,0.000
 03280,-0.00004743,-0.00000632,0.00004868,0.00000423,0.00000061,0.00000
 223,-0.00000204,-0.00000364,-0.00000227,-0.00000219,-0.00017274,0.0016
 8311,0.00076785,0.00019048,-0.00083627,0.00038440,-0.00001533,-0.00007
 665,-0.00006643,-0.00021067,-0.00003622,0.00041944,0.00119615,0.001149
 74,0.00092004,-0.00009958,-0.00007532,-0.00010072,-0.00074993,-0.00038
 587,0.00023670,0.00006408,-0.00011050,0.00047006,0.05984991,0.09178364
 ,-0.25706456,-0.06423837,-0.09765762,0.27904919,0.00006833,-0.00002062
 ,-0.00002693,-0.00001828,0.00000346,-0.00000671,0.00001790,-0.00000218
 ,0.00000182,0.00000902,-0.00001304,-0.00002353,0.00000195,0.00000189,-
 0.00000610,-0.00001941,0.00001428,-0.00000125,0.00001730,-0.00007318,0
 .00006000,-0.00000028,0.00000075,-0.00000109,0.00000301,0.00000076,-0.
 00000900,-0.00000542,-0.00001489,0.00000506,-0.00013668,0.00002033,-0.
 00005746,-0.00000871,-0.00004371,-0.00005755,-0.00018431,-0.00007034,0
 .00020467,0.00005093,-0.00005959,0.00013331,0.00000614,-0.00005080,-0.
 00004086,-0.00000095,0.00002509,0.00004457,0.00027262,0.00052699,0.000
 02652,0.00218038,-0.00632568,0.00180284,0.00027196,-0.00014790,0.00018
 153,-0.00014758,0.00017349,0.00008089,-0.00016501,0.00010539,-0.000060
 65,0.00007775,0.00058868,-0.00047463,0.00013442,-0.00043394,0.00038060
 ,-0.00052321,0.00021008,0.00044037,0.00016470,0.00010961,-0.00029618,-
 0.00031388,-0.00030153,0.00015737,0.00001228,0.00001989,-0.00000593,0.
 00001024,0.00000088,-0.00000435,-0.00000298,0.00000258,0.00000417,-0.0
 0006882,-0.00002418,0.00001147,-0.00010815,-0.00004171,-0.00001536,0.0
 0002451,0.00002220,-0.00000714,0.00003252,0.00000550,-0.00000367,0.000
 00200,0.00000847,-0.00002442,0.00018663,0.00008236,0.00017387,-0.00010
 728,-0.00008940,-0.00015366,-0.00010446,0.00009620,-0.00016994,0.00001
 216,0.00000369,-0.00000335,0.00000449,0.00000774,-0.00000277,-0.000000
 40,-0.00001092,0.00000701,-0.00000352,-0.00000311,-0.00000490,0.000061
 55,0.00002929,0.00000766,-0.00002205,-0.00000037,-0.00000196,0.0000066
 4,-0.00000135,-0.00000377,-0.00003309,-0.00003067,-0.00000425,-0.00005
 369,-0.00006244,0.00000252,0.00001416,-0.00001891,-0.00003589,0.000011
 99,0.00000639,0.00000291,0.00000922,-0.00000454,-0.00001595,-0.0003079
 4,0.00165912,-0.00130616,-0.00000782,0.00012449,0.00008914,-0.00000432
 ,0.00000185,-0.00002649,-0.00002650,0.00001037,-0.00005501,0.00012813,
 -0.00094502,-0.00057122,-0.00014863,0.00000627,-0.00014528,0.00031649,
 -0.00020838,-0.00011880,0.00060043,-0.00018125,-0.00012362,0.00074282,
 -0.00086912,0.00021992,-0.00011467,-0.00000351,-0.00033552,0.00000132,
 0.00000519,0.00013024,0.00012374,0.00014542,0.00014677,-0.11438851,0.1
 1422339,-0.01623034,0.00402314,-0.00805736,0.00071094,0.12056240,-0.00
 004878,-0.00001958,0.00002909,0.00002071,0.00000202,-0.00000584,-0.000
 02873,0.00000373,-0.00000586,-0.00000313,0.00002933,0.00002744,-0.0000
 0089,-0.00000199,0.00000471,0.00001349,-0.00004953,-0.00004283,0.00000
 741,0.00003836,-0.00001462,-0.00000057,-0.00000210,0.00000291,-0.00000
 733,-0.00000278,0.00001746,0.00001711,0.00002599,0.00002001,-0.0000312
 4,-0.00019330,-0.00006778,-0.00009399,0.00023028,0.00013466,0.00021607
 ,-0.00007017,-0.00058315,-0.00026008,0.00006949,-0.00006160,0.00007078
 ,0.00002947,0.00011435,0.00002836,-0.00000256,-0.00005688,0.00021147,0
 .00039115,0.00152990,0.01061989,-0.01790847,0.00413227,-0.00020036,0.0
 0105041,-0.00027691,0.00006845,-0.00003095,-0.00011299,-0.00005924,-0.
 00047032,0.00015132,0.00055487,-0.00002905,0.00090755,0.00022818,-0.00
 075917,0.00035554,0.00021761,-0.00001699,-0.00022588,-0.00017891,0.000
 01248,0.00010676,-0.00013888,-0.00004498,0.00065103,-0.00000258,-0.000
 00151,0.00000285,-0.00000439,-0.00000218,0.00000090,0.00000123,-0.0000
 0400,0.00000056,0.00001872,0.00000114,-0.00001095,0.00007126,0.0000310
 1,-0.00000054,-0.00001124,-0.00004722,0.00002494,-0.00000707,-0.000001
 32,-0.00000224,-0.00000227,0.00000026,0.00000592,0.00018649,-0.0000883
 6,-0.00017522,-0.00004165,0.00005306,0.00008886,0.00001840,0.00005214,
 -0.00002308,-0.00000029,-0.00000151,-0.00000216,-0.00000151,-0.0000018
 4,0.00000291,-0.00000177,0.00000397,-0.00000539,-0.00000104,0.00000123
 ,0.00000394,-0.00001825,0.00000729,0.00000628,0.00000984,-0.00000152,-
 0.00000123,-0.00000044,0.00000160,-0.00000024,0.00001311,0.00001664,0.
 00000161,-0.00000633,-0.00001255,-0.00003811,0.00000851,0.00000435,0.0
 0000689,-0.00001023,-0.00000523,0.00000363,-0.00000224,0.00000675,0.00
 000682,0.00102541,-0.00283849,0.00150082,0.00003506,-0.00016101,-0.000
 15732,0.00005110,-0.00004025,0.00015362,-0.00001846,0.00002768,-0.0000
 2556,-0.00225234,-0.00230277,-0.00442226,-0.00016324,0.00046013,-0.000
 06197,0.00011854,0.00022358,0.00005574,0.00091994,-0.00114489,-0.00000
 900,0.00118610,0.00073039,0.00065837,-0.00078121,0.00010437,-0.0002864
 1,0.00001858,-0.00019040,0.00001530,-0.00014818,0.00032614,-0.00002649
 ,0.11357749,-0.23747235,0.02597986,0.00600632,-0.00936254,0.00022460,-
 0.12655618,0.26219321,0.00000719,-0.00002239,0.00002881,-0.00002706,0.
 00001392,-0.00000221,0.00000949,0.00000130,-0.00000270,-0.00001121,-0.
 00000804,-0.00000115,0.00000019,-0.00000003,0.00000047,0.00001925,0.00
 001608,0.00001199,-0.00001724,0.00001505,0.00000270,-0.00000204,-0.000
 00082,0.00000111,0.00000123,-0.00000757,0.00000538,-0.00000564,-0.0000
 0487,-0.00000418,-0.00000829,-0.00018942,-0.00002126,-0.00011532,0.000
 24597,0.00009654,0.00010445,0.00018784,0.00022201,-0.00015038,-0.00009
 487,0.00019994,0.00004131,0.00001050,0.00007476,0.00000599,0.00003153,
 0.00001475,0.00078437,-0.00082071,0.00101941,0.01281204,-0.02005226,0.
 00256548,-0.00002787,0.00002706,-0.00079560,0.00025488,0.00007308,-0.0
 0015265,-0.00002129,-0.00014765,-0.00009956,-0.00018672,0.00119870,-0.
 00032024,0.00010512,0.00004657,0.00002054,0.00011254,0.00012768,-0.000
 24444,-0.00000804,-0.00001859,0.00000354,0.00015164,0.00071085,-0.0001
 3813,-0.00001544,-0.00001819,-0.00000172,-0.00000115,0.00000384,0.0000
 0233,0.00000145,0.00000227,-0.00000421,-0.00000074,0.00000578,0.000046
 99,0.00004312,0.00003215,-0.00000341,-0.00000150,0.00001743,0.00000006
 ,-0.00000449,-0.00000015,-0.00000590,0.00000443,-0.00000008,0.00000287
 ,-0.00000330,0.00001491,-0.00011867,0.00000988,0.00000396,0.00004240,-
 0.00009811,-0.00010107,0.00005633,-0.00001283,-0.00001787,-0.00000526,
 -0.00000349,-0.00000382,0.00000470,0.00000257,0.00000429,-0.00000157,0
 .00000296,0.00000247,-0.00000116,-0.00001272,-0.00002685,-0.00003271,-
 0.00000414,0.00000256,0.00000745,-0.00000335,0.00000044,0.00000570,0.0
 0000948,-0.00000355,0.00001135,-0.00000353,-0.00000409,-0.00000263,0.0
 0000251,-0.00000053,-0.00000491,-0.00000479,0.00000053,0.00000095,-0.0
 0000215,-0.00000272,0.00000465,-0.00131283,0.00184515,-0.00104840,0.00
 004848,-0.00026771,0.00002291,-0.00000129,-0.00002646,0.00005922,0.000
 00066,0.00000974,0.00001558,-0.00156774,-0.00265625,-0.00352631,-0.000
 15878,-0.00022030,0.00024066,-0.00004736,0.00020552,-0.00015382,0.0005
 5824,-0.00141393,0.00044264,0.00096246,0.00051176,0.00066210,-0.000339
 76,0.00020059,0.00020167,-0.00010823,0.00012507,-0.00004939,0.00022983
 ,0.00018432,-0.00008422,-0.01655672,0.02656809,-0.04942894,-0.01538192
 ,0.02325451,-0.00197891,0.01894724,-0.02937636,0.05380542,0.00000468,-
 0.00001448,0.00007744,-0.00001087,0.00000390,-0.00002629,0.00001332,-0
 .00000497,-0.00000440,-0.00000690,0.00000138,0.00000445,0.00000227,-0.
 00000445,0.00000030,-0.00002868,-0.00002449,-0.00003966,0.00019294,-0.
 00001504,-0.00025027,-0.00000135,-0.00000050,0.00000131,-0.00000188,-0
 .00000387,0.00000405,0.00001586,0.00001983,0.00002014,0.00053614,-0.00
 070969,-0.00037023,0.00050794,0.00077304,0.00017855,-0.00064644,0.0002
 7494,0.00306269,-0.00040103,0.00003616,-0.00015878,-0.00001181,0.00007
 151,0.00007495,0.00002029,-0.00005209,-0.00007917,-0.00106492,-0.00042
 334,0.00043578,-0.00738338,-0.00056426,0.00012483,-0.00004368,-0.00010
 796,-0.00001235,-0.00016866,-0.00005026,-0.00009386,0.00012368,0.00010
 390,-0.00001272,-0.00015060,-0.00031103,-0.00004773,-0.00012446,0.0003
 4837,-0.00011126,0.00007655,0.00004640,-0.00050267,0.00018614,-0.00028
 938,0.00047584,-0.00011294,0.00031585,-0.00012048,0.00001008,-0.000025
 76,0.00000055,-0.00000153,0.00000150,-0.00000252,0.00000387,0.00000582
 ,-0.00000092,0.00005692,0.00001468,0.00001488,0.00003876,0.00012903,-0
 .00012304,-0.00002026,0.00002248,0.00002539,-0.00000456,-0.00000230,-0
 .00000735,0.00001332,0.00005203,-0.00000191,-0.00033420,-0.00003632,0.
 00002258,0.00017653,0.00005106,0.00008552,0.00004080,-0.00001326,0.000
 03569,-0.00000371,-0.00000060,-0.00000583,0.00000359,-0.00000345,0.000
 00212,0.00000492,-0.00000275,0.00000583,0.00000001,0.00000346,0.000000
 14,-0.00005995,-0.00007669,-0.00001469,0.00001616,0.00000941,0.0000023
 2,-0.00000846,-0.00000196,0.00000328,-0.00000642,0.00000231,-0.0000024
 8,0.00001941,0.00002636,0.00000008,-0.00001945,0.00001514,0.00001467,0
 .00001516,0.00000019,-0.00001457,0.00000557,0.00000116,0.00000856,0.00
 002729,0.00016971,0.00008802,0.00002122,-0.00000051,-0.00000676,-0.000
 01224,0.00002565,-0.00005535,0.00002307,-0.00001877,0.00002368,0.00054
 647,0.00102979,0.00031943,-0.00011438,-0.00012017,-0.00008538,0.000488
 42,-0.00010078,0.00011882,0.00023845,-0.00004386,-0.00006133,0.0006830
 1,-0.00172781,-0.00219517,0.00027083,0.00010869,0.00016191,0.00022697,
 0.00022162,0.00007086,-0.00051797,-0.00022484,0.00005359,-0.30100353,-
 0.05232380,-0.00341577,-0.00583080,-0.00040222,-0.00079354,-0.01313670
 ,-0.00445746,0.00099445,0.32662117,0.00003597,-0.00002369,-0.00002833,
 -0.00000210,-0.00000815,-0.00001390,0.00001382,-0.00000515,-0.00000786
 ,0.00000444,-0.00000560,-0.00001182,0.00000297,0.00000184,-0.00000490,
 0.00000588,0.00000845,-0.00001068,0.00004181,-0.00006811,0.00005190,0.
 00000030,-0.00000007,-0.00000227,0.00000020,0.00000003,-0.00000622,0.0
 0000072,-0.00001263,-0.00000306,0.00004599,-0.00010460,-0.00017048,0.0
 0016007,0.00014239,-0.00001315,0.00035436,0.00002634,0.00066652,-0.000
 17277,-0.00008939,0.00005232,-0.00005570,0.00003645,0.00003765,-0.0000
 0672,-0.00000003,0.00000003,-0.00010644,0.00026086,0.00065047,-0.02040
 008,-0.00461657,0.00168662,0.00009811,0.00005637,0.00002230,-0.0001355
 3,0.00022356,0.00038275,-0.00016804,-0.00016170,-0.00000277,0.00032004
 ,0.00033823,0.00014774,0.00020460,-0.00002621,0.00020943,-0.00006332,0
 .00006528,0.00005618,-0.00006863,-0.00001111,0.00000061,0.00012027,-0.
 00029124,-0.00011252,-0.00000458,0.00002792,-0.00001162,0.00000426,0.0
 0000108,0.00000065,-0.00000153,-0.00000023,0.00000103,-0.00011783,-0.0
 0006725,0.00004724,-0.00000622,-0.00001326,-0.00005479,0.00000878,-0.0
 0004201,0.00000574,0.00001420,0.00000711,-0.00000829,0.00003757,0.0000
 0047,-0.00004771,0.00023127,-0.00006341,-0.00002386,-0.00007293,0.0000
 2759,-0.00001930,-0.00007745,0.00002872,-0.00008729,0.00001245,0.00000
 774,-0.00000073,-0.00000225,0.00000381,-0.00000364,-0.00000142,-0.0000
 0307,-0.00000229,-0.00000421,-0.00000234,-0.00000106,0.00005880,0.0000
 6280,-0.00000982,-0.00001999,-0.00000771,-0.00000161,0.00001066,0.0000
 0089,-0.00000421,0.00000110,-0.00000973,0.00000048,-0.00002458,-0.0000
 2280,-0.00002484,0.00000680,-0.00000860,-0.00001147,-0.00000376,0.0000
 0469,0.00001146,-0.00000077,-0.00000395,-0.00000603,-0.00007630,-0.000
 21123,-0.00018594,-0.00002084,0.00003732,-0.00000217,0.00001502,-0.000
 03677,0.00007319,-0.00001004,0.00000375,-0.00002311,-0.00122550,0.0011
 4050,0.00046341,-0.00011717,-0.00012104,0.00011828,0.00061137,-0.00069
 501,-0.00044633,0.00023633,0.00025471,0.00013740,-0.00017920,-0.003005
 92,-0.00373643,-0.00012718,0.00022881,-0.00009830,0.00038156,0.0000571
 1,-0.00005138,-0.00151523,0.00003496,-0.00027899,-0.05109540,-0.058286
 05,-0.00073117,-0.01185355,-0.00280409,-0.00112561,0.02642377,0.007154
 20,-0.00019438,0.05827374,0.06058473,0.00006939,-0.00007930,-0.0000587
 4,-0.00009484,0.00001406,-0.00000393,0.00006529,0.00000712,0.00000990,
 -0.00004855,-0.00005818,-0.00006564,-0.00000344,0.00000426,0.00000120,
 0.00011208,0.00014856,0.00017739,-0.00015964,0.00001009,0.00017491,-0.
 00000844,-0.00000199,0.00000248,0.00000835,-0.00001314,0.00000142,-0.0
 0005620,-0.00007084,-0.00007575,0.00027410,-0.00081796,-0.00066161,0.0
 0045034,0.00066898,0.00022173,0.00011862,0.00021281,-0.00045304,-0.000
 17842,-0.00022636,0.00018202,-0.00003347,0.00006561,0.00007853,0.00002
 225,0.00002019,0.00002911,-0.00098464,0.00024561,0.00086456,-0.0232906
 8,-0.00358367,-0.00012431,-0.00007038,-0.00004915,-0.00009786,0.000549
 22,0.00024173,-0.00058236,0.00004329,0.00004319,-0.00000434,-0.0000742
 9,-0.00012148,-0.00004479,-0.00000016,0.00000345,-0.00003401,-0.000116
 34,0.00015048,-0.00015840,0.00018372,-0.00010570,0.00008814,-0.0000539
 0,0.00018075,0.00017432,-0.00003615,-0.00009832,-0.00000669,0.00000085
 ,0.00001152,0.00000537,0.00000441,0.00001048,-0.00001571,-0.00001374,-
 0.00001482,0.00014120,0.00004429,0.00016240,0.00001419,-0.00007473,0.0
 0009948,0.00000147,-0.00002114,0.00000453,-0.00000071,0.00003385,-0.00
 000508,-0.00000031,-0.00026458,-0.00001357,0.00000253,0.00012194,0.000
 02336,0.00005375,0.00003693,-0.00002498,0.00003286,-0.00000892,-0.0000
 1612,-0.00001115,0.00000152,-0.00000345,0.00000611,0.00000680,0.000003
 78,0.00000588,0.00000532,0.00000570,-0.00000543,-0.00002951,-0.0000363
 9,-0.00008858,-0.00000688,-0.00000898,0.00001676,-0.00001999,-0.000000
 70,0.00001980,0.00000651,-0.00000709,0.00000956,0.00000447,0.00000536,
 0.00002013,-0.00001986,0.00000479,-0.00000798,0.00001440,0.00001128,-0
 .00001331,0.00000574,-0.00000847,0.00000304,0.00002376,0.00002855,0.00
 003155,0.00002498,0.00000355,-0.00000569,-0.00000342,0.00001124,-0.000
 01932,0.00001131,-0.00000528,-0.00000031,-0.00024376,0.00123377,0.0006
 7327,0.00017770,0.00000114,-0.00004333,0.00036677,-0.00034795,0.000137
 33,0.00001994,0.00026265,-0.00013141,-0.00004256,-0.00319262,-0.003661
 49,0.00028173,0.00013500,-0.00010792,-0.00006596,-0.00021939,0.0002233
 5,-0.00149959,-0.00062620,0.00024630,-0.00165145,-0.00071446,-0.045387
 86,0.02752366,0.00452981,0.00159716,-0.00354169,-0.00085055,-0.0016691
 5,0.00210379,0.00275689,0.04829379\\-0.00000232,0.00000125,-0.00000360
 ,-0.00000422,0.00000023,-0.00000629,-0.00000277,-0.00000030,-0.0000070
 3,-0.00000314,-0.00000288,-0.00000642,-0.00000186,-0.00000354,-0.00000
 688,-0.00000139,-0.00000297,-0.00000427,0.00000005,-0.00000109,-0.0000
 0346,-0.00000436,0.00000040,-0.00000913,-0.00000412,0.00000234,-0.0000
 0754,0.00000070,-0.00000679,-0.00000280,-0.00000397,0.00000219,-0.0000
 0918,-0.00000311,-0.00000120,0.00000027,0.00000141,0.00000072,-0.00000
 645,0.00000177,0.00000384,-0.00000129,-0.00000717,0.00000414,-0.000006
 93,-0.00000249,0.00000093,-0.00000285,-0.00000167,-0.00000014,-0.00000
 015,0.00000077,-0.00000232,-0.00000408,-0.00000240,0.00000177,-0.00000
 034,0.00000621,-0.00000400,0.00000668,0.00000104,0.00000281,0.00000700
 ,-0.00000055,0.00000162,0.00000558,-0.00000177,0.00000007,0.00000455,0
 .00000378,0.00000924,0.00000244,0.00000046,0.00000143,0.00000422,0.000
 00219,-0.00000367,0.00000427,0.00000141,-0.00000167,0.00000251,-0.0000
 0002,-0.00000329,-0.00000005,0.00000240,0.00000204,0.00000226,0.000001
 56,0.00000077,0.00000300,0.00000368,-0.00000526,0.00000404,-0.00001015
 ,-0.00000800,-0.00000445,0.00000328,-0.00000455,0.00000036,0.00000336,
 -0.00000734,0.00000297,0.00000041,0.00000358,0.00000277,0.00000104,0.0
 0000910,0.00000228,0.00000217,-0.00000089,0.00000415,0.00000870,0.0000
 0862,0.00000645,0.00000394,0.00000074,0.00000576,0.00000267,0.00000371
 ,0.00000788,-0.00000023,0.00000434,0.00000594,0.00000282,-0.00000508,0
 .00000663,0.00000448,-0.00000694,0.00000528,0.00000358,-0.00000211,0.0
 0000395,0.00000820,-0.00000098,0.00000635,-0.00000056,0.00000229,0.000
 00053,-0.00000250,0.00000904,0.00000354,-0.00000404,0.00000137,-0.0000
 0191,-0.00000083,0.00000654,0.00000328,0.00000539,-0.00000291,0.000002
 76,0.00000166,-0.00000288,0.00000654,0.00000432,0.00000262,0.00000652,
 0.00000136,0.00000574,0.00000646,-0.00000107,-0.00000044,-0.00000289,-
 0.00000140,-0.00000270,-0.00000525,-0.00000186,-0.00000396,-0.00000775
 ,-0.00000446,-0.00000023,-0.00000911,-0.00000371,-0.00000113,-0.000002
 32,-0.00000086,0.00000281,0.00000214,-0.00000117,-0.00000354,-0.000004
 36,-0.00000254,0.00000386,-0.00000605,0.00000031,0.00000041,-0.0000034
 1,-0.00000159,-0.00000438,-0.00000152,-0.00000041,-0.00000101,-0.00000
 097,-0.00000039,-0.00000235,-0.00000066\\\@


 Everything starts as somebody's daydream.
                           -- Larry Niven
 Job cpu time:       2 days 19 hours  9 minutes  6.2 seconds.
 File lengths (MBytes):  RWF=   7461 Int=      0 D2E=      0 Chk=     25 Scr=      1
 Normal termination of Gaussian 09 at Fri Feb  2 20:32:59 2018.
