 Entering Gaussian System, Link 0=g09
 Initial command:
 /sw/group/lms/sw/g09_D01/g09/l1.exe "/work/job.575629/Gau-46365.inp" -scrdir="/work/job.575629/"
 Default is to use a total of  28 processors:
                               28 via shared-memory
                                1 via Linda
 Entering Link 1 = /sw/group/lms/sw/g09_D01/g09/l1.exe PID=     46366.
  
 Copyright (c) 1988,1990,1992,1993,1995,1998,2003,2009,2013,
            Gaussian, Inc.  All Rights Reserved.
  
 This is part of the Gaussian(R) 09 program.  It is based on
 the Gaussian(R) 03 system (copyright 2003, Gaussian, Inc.),
 the Gaussian(R) 98 system (copyright 1998, Gaussian, Inc.),
 the Gaussian(R) 94 system (copyright 1995, Gaussian, Inc.),
 the Gaussian 92(TM) system (copyright 1992, Gaussian, Inc.),
 the Gaussian 90(TM) system (copyright 1990, Gaussian, Inc.),
 the Gaussian 88(TM) system (copyright 1988, Gaussian, Inc.),
 the Gaussian 86(TM) system (copyright 1986, Carnegie Mellon
 University), and the Gaussian 82(TM) system (copyright 1983,
 Carnegie Mellon University). Gaussian is a federally registered
 trademark of Gaussian, Inc.
  
 This software contains proprietary and confidential information,
 including trade secrets, belonging to Gaussian, Inc.
  
 This software is provided under written license and may be
 used, copied, transmitted, or stored only in accord with that
 written license.
  
 The following legend is applicable only to US Government
 contracts under FAR:
  
                    RESTRICTED RIGHTS LEGEND
  
 Use, reproduction and disclosure by the US Government is
 subject to restrictions as set forth in subparagraphs (a)
 and (c) of the Commercial Computer Software - Restricted
 Rights clause in FAR 52.227-19.
  
 Gaussian, Inc.
 340 Quinnipiac St., Bldg. 40, Wallingford CT 06492
  
  
 ---------------------------------------------------------------
 Warning -- This program may not be used in any manner that
 competes with the business of Gaussian, Inc. or will provide
 assistance to any competitor of Gaussian, Inc.  The licensee
 of this program is prohibited from giving any competitor of
 Gaussian, Inc. access to this program.  By using this program,
 the user acknowledges that Gaussian, Inc. is engaged in the
 business of creating and licensing software in the field of
 computational chemistry and represents and warrants to the
 licensee that it is not a competitor of Gaussian, Inc. and that
 it will not use this program in any manner prohibited above.
 ---------------------------------------------------------------
  

 Cite this work as:
 Gaussian 09, Revision D.01,
 M. J. Frisch, G. W. Trucks, H. B. Schlegel, G. E. Scuseria, 
 M. A. Robb, J. R. Cheeseman, G. Scalmani, V. Barone, B. Mennucci, 
 G. A. Petersson, H. Nakatsuji, M. Caricato, X. Li, H. P. Hratchian, 
 A. F. Izmaylov, J. Bloino, G. Zheng, J. L. Sonnenberg, M. Hada, 
 M. Ehara, K. Toyota, R. Fukuda, J. Hasegawa, M. Ishida, T. Nakajima, 
 Y. Honda, O. Kitao, H. Nakai, T. Vreven, J. A. Montgomery, Jr., 
 J. E. Peralta, F. Ogliaro, M. Bearpark, J. J. Heyd, E. Brothers, 
 K. N. Kudin, V. N. Staroverov, T. Keith, R. Kobayashi, J. Normand, 
 K. Raghavachari, A. Rendell, J. C. Burant, S. S. Iyengar, J. Tomasi, 
 M. Cossi, N. Rega, J. M. Millam, M. Klene, J. E. Knox, J. B. Cross, 
 V. Bakken, C. Adamo, J. Jaramillo, R. Gomperts, R. E. Stratmann, 
 O. Yazyev, A. J. Austin, R. Cammi, C. Pomelli, J. W. Ochterski, 
 R. L. Martin, K. Morokuma, V. G. Zakrzewski, G. A. Voth, 
 P. Salvador, J. J. Dannenberg, S. Dapprich, A. D. Daniels, 
 O. Farkas, J. B. Foresman, J. V. Ortiz, J. Cioslowski, 
 and D. J. Fox, Gaussian, Inc., Wallingford CT, 2013.
 
 ******************************************
 Gaussian 09:  ES64L-G09RevD.01 24-Apr-2013
                 2-Feb-2018 
 ******************************************
 %chk=Sub-10-Cl-18-tBu.R.1_2a_r_down_b.Cf1.chk
 ---------------------------------------------------------
 #M06/genecp denfit freq=(hpmodes,noraman,temperature=298)
 ---------------------------------------------------------
 1/10=4,30=1,38=1,112=298000/1,3;
 2/12=2,17=6,18=5,40=1/2;
 3/5=7,11=2,16=1,17=8,25=1,30=1,71=2,74=-54,82=47,140=1/1,2,3;
 4//1;
 5/5=2,38=5,98=1/2;
 8/6=4,10=90,11=11/1;
 11/6=1,8=1,9=11,15=111,16=1/1,2,10;
 10/6=1/2;
 6/7=2,8=2,9=2,10=2,18=1,28=1/1;
 7/8=11,10=1,25=1/1,2,3,16;
 1/10=4,30=1/3;
 99//99;
 -------------------------------------------------------
 Sub-10-Cl-18-tBu/R/1_2a_r_down_b/Cf1 step 4 (attempt 1)
 -------------------------------------------------------
 Symbolic Z-matrix:
 Charge =  1 Multiplicity = 1
 C                    0    -1.00273   2.30571  -0.65536 
 C                    0    -1.11424   3.59419  -1.1498 
 C                    0    -0.09854   4.50238  -0.84628 
 C                    0     0.94217   4.09982  -0.02929 
 H                    0     1.73024   4.78141   0.28017 
 C                    0     0.95317   2.77425   0.42481 
 N                    0     0.04197   1.87513   0.09104 
 H                    0    -0.13983   5.52337  -1.21945 
 H                    0    -1.98196   3.87657  -1.74028 
 Cl                   0     2.18908   2.31045   1.54181 
 C                    0    -2.09253   1.33252  -0.79493 
 O                    0    -3.22931   1.74778  -1.34562 
 N                    0    -2.04918   0.1401   -0.31725 
 C                    0    -4.09357   0.58198  -1.35171 
 H                    0    -5.10097   0.91993  -1.09734 
 H                    0    -4.08981   0.18039  -2.37301 
 C                    0    -3.44169  -0.35828  -0.33005 
 C                    0    -4.07394  -0.32188   1.08672 
 H                    0    -3.46138  -1.39964  -0.68704 
 Pd                   0     0.06695  -0.51471  -0.18319 
 C                    0     4.80596   0.42121  -0.36359 
 C                    0     4.14236  -0.03422  -1.65051 
 C                    0     2.62351   0.04727  -1.51248 
 C                    0     2.1341   -0.67785  -0.28993 
 C                    0     2.86841  -0.82654   0.83247 
 H                    0     4.47487   0.58296  -2.49564 
 H                    0     2.32396   1.1082   -1.42593 
 C                    0    -0.83629  -2.47601  -2.23805 
 H                    0    -0.33168  -1.77299  -2.91091 
 H                    0    -1.89818  -2.20043  -2.20099 
 C                    0    -0.22516  -2.50513  -0.86166 
 C                    0     1.1896   -2.56382  -0.70869 
 C                    0    -1.07505  -3.24445   0.14221 
 H                    0    -1.16924  -4.28495  -0.228 
 H                    0    -2.09319  -2.81927   0.15014 
 H                    0     4.66709   1.50856  -0.23262 
 C                    0     4.24235  -0.22678   0.87921 
 O                    0     4.8642   -0.22443   1.92614 
 H                    0     5.89017   0.25529  -0.36289 
 H                    0     4.43742  -1.0686   -1.88206 
 H                    0     2.12734  -0.31621  -2.42263 
 C                    0     2.42737  -1.46923   2.10672 
 H                    0     3.09212  -2.30197   2.37682 
 H                    0     2.51998  -0.74616   2.9286 
 H                    0     1.39233  -1.82509   2.073 
 O                    0    -0.48975  -3.20847   1.41597 
 H                    0    -0.95512  -3.80949   2.01355 
 H                    0    -0.77639  -3.47458  -2.70261 
 C                    0     2.06998  -2.9266   -1.86703 
 H                    0     3.13072  -2.86995  -1.60516 
 H                    0     1.84743  -3.97482  -2.12319 
 H                    0     1.89404  -2.33845  -2.77395 
 H                    0     1.51048  -2.9779    0.24666 
 C                    0    -4.11644   1.09838   1.65079 
 H                    0    -4.58707   1.08409   2.64274 
 H                    0    -3.1085    1.51869   1.78002 
 H                    0    -4.70506   1.78705   1.02895 
 C                    0    -5.49449  -0.88132   0.98503 
 H                    0    -5.49955  -1.89277   0.55191 
 H                    0    -5.9422   -0.95111   1.98529 
 H                    0    -6.16182  -0.25111   0.381 
 C                    0    -3.27019  -1.20625   2.03922 
 H                    0    -3.68949  -1.13767   3.05207 
 H                    0    -3.32279  -2.26412   1.74142 
 H                    0    -2.21328  -0.91177   2.09228 
 

 GradGradGradGradGradGradGradGradGradGradGradGradGradGradGradGradGradGrad
 Berny optimization.
 Initialization pass.
 Trust Radius=3.00D-01 FncErr=1.00D-07 GrdErr=1.00D-07
 Number of steps in this run=      2 maximum allowed number of steps=      2.
 GradGradGradGradGradGradGradGradGradGradGradGradGradGradGradGradGradGrad

 Stoichiometry    C24H34ClN2O3Pd(1+)
 Framework group  C1[X(C24H34ClN2O3Pd)]
 Deg. of freedom   189
 Full point group                 C1      NOp   1
 Largest Abelian subgroup         C1      NOp   1
 Largest concise Abelian subgroup C1      NOp   1
                         Standard orientation:                         
 ---------------------------------------------------------------------
 Center     Atomic      Atomic             Coordinates (Angstroms)
 Number     Number       Type             X           Y           Z
 ---------------------------------------------------------------------
      1          6           0       -1.002727    2.305710   -0.655363
      2          6           0       -1.114238    3.594194   -1.149803
      3          6           0       -0.098543    4.502384   -0.846280
      4          6           0        0.942174    4.099822   -0.029285
      5          1           0        1.730242    4.781415    0.280172
      6          6           0        0.953170    2.774248    0.424807
      7          7           0        0.041971    1.875125    0.091037
      8          1           0       -0.139831    5.523375   -1.219448
      9          1           0       -1.981960    3.876566   -1.740278
     10         17           0        2.189085    2.310446    1.541813
     11          6           0       -2.092530    1.332519   -0.794927
     12          8           0       -3.229314    1.747775   -1.345621
     13          7           0       -2.049180    0.140102   -0.317249
     14          6           0       -4.093567    0.581978   -1.351710
     15          1           0       -5.100972    0.919932   -1.097344
     16          1           0       -4.089808    0.180391   -2.373005
     17          6           0       -3.441694   -0.358279   -0.330053
     18          6           0       -4.073941   -0.321878    1.086715
     19          1           0       -3.461379   -1.399640   -0.687044
     20         46           0        0.066948   -0.514713   -0.183194
     21          6           0        4.805960    0.421207   -0.363593
     22          6           0        4.142360   -0.034221   -1.650506
     23          6           0        2.623505    0.047272   -1.512483
     24          6           0        2.134104   -0.677846   -0.289933
     25          6           0        2.868409   -0.826536    0.832466
     26          1           0        4.474868    0.582962   -2.495637
     27          1           0        2.323960    1.108195   -1.425934
     28          6           0       -0.836290   -2.476013   -2.238054
     29          1           0       -0.331675   -1.772989   -2.910906
     30          1           0       -1.898178   -2.200429   -2.200989
     31          6           0       -0.225164   -2.505130   -0.861661
     32          6           0        1.189597   -2.563822   -0.708686
     33          6           0       -1.075053   -3.244453    0.142210
     34          1           0       -1.169236   -4.284946   -0.227996
     35          1           0       -2.093193   -2.819265    0.150135
     36          1           0        4.667088    1.508557   -0.232616
     37          6           0        4.242346   -0.226775    0.879211
     38          8           0        4.864200   -0.224425    1.926136
     39          1           0        5.890166    0.255286   -0.362885
     40          1           0        4.437421   -1.068604   -1.882056
     41          1           0        2.127340   -0.316210   -2.422627
     42          6           0        2.427369   -1.469233    2.106723
     43          1           0        3.092123   -2.301970    2.376821
     44          1           0        2.519979   -0.746162    2.928598
     45          1           0        1.392328   -1.825089    2.072998
     46          8           0       -0.489747   -3.208470    1.415965
     47          1           0       -0.955122   -3.809490    2.013546
     48          1           0       -0.776389   -3.474577   -2.702609
     49          6           0        2.069976   -2.926597   -1.867031
     50          1           0        3.130723   -2.869950   -1.605161
     51          1           0        1.847430   -3.974820   -2.123187
     52          1           0        1.894043   -2.338453   -2.773950
     53          1           0        1.510481   -2.977900    0.246660
     54          6           0       -4.116436    1.098382    1.650792
     55          1           0       -4.587067    1.084090    2.642740
     56          1           0       -3.108495    1.518689    1.780021
     57          1           0       -4.705062    1.787045    1.028953
     58          6           0       -5.494491   -0.881323    0.985025
     59          1           0       -5.499547   -1.892771    0.551906
     60          1           0       -5.942203   -0.951114    1.985286
     61          1           0       -6.161824   -0.251108    0.380995
     62          6           0       -3.270193   -1.206253    2.039220
     63          1           0       -3.689493   -1.137672    3.052067
     64          1           0       -3.322791   -2.264122    1.741423
     65          1           0       -2.213282   -0.911765    2.092280
 ---------------------------------------------------------------------
 Rotational constants (GHZ):      0.1832632      0.1157624      0.0898710
 General basis read from cards:  (5D, 7F)
 ======================================================================================================
                                       Pseudopotential Parameters
 ======================================================================================================
  Center     Atomic      Valence      Angular      Power
  Number     Number     Electrons     Momentum     of R      Exponent        Coefficient   SO-Coeffient
 ======================================================================================================
    1          6
                                   No pseudopotential on this center.
    2          6
                                   No pseudopotential on this center.
    3          6
                                   No pseudopotential on this center.
    4          6
                                   No pseudopotential on this center.
    5          1
                                   No pseudopotential on this center.
    6          6
                                   No pseudopotential on this center.
    7          7
                                   No pseudopotential on this center.
    8          1
                                   No pseudopotential on this center.
    9          1
                                   No pseudopotential on this center.
   10         17
                                   No pseudopotential on this center.
   11          6
                                   No pseudopotential on this center.
   12          8
                                   No pseudopotential on this center.
   13          7
                                   No pseudopotential on this center.
   14          6
                                   No pseudopotential on this center.
   15          1
                                   No pseudopotential on this center.
   16          1
                                   No pseudopotential on this center.
   17          6
                                   No pseudopotential on this center.
   18          6
                                   No pseudopotential on this center.
   19          1
                                   No pseudopotential on this center.
   20         46           18
                                      F and up 
                                                     0      598.3336444       -0.05631770    0.00000000
                                                     1      162.4298290      -20.12880360    0.00000000
                                                     2       51.5714771     -105.81979230    0.00000000
                                                     2       16.4888260      -42.57333450    0.00000000
                                                     2        5.8287656       -3.61650860    0.00000000
                                      S - F
                                                     0       73.3806304        3.00036510    0.00000000
                                                     1       14.7550438       32.43500930    0.00000000
                                                     2       17.8350204      459.08303830    0.00000000
                                                     2       12.7111477     -868.06290290    0.00000000
                                                     2        9.3292063      514.47260980    0.00000000
                                      P - F
                                                     0       55.6689877        4.95930990    0.00000000
                                                     1       64.2337771       21.17110290    0.00000000
                                                     2       17.6254952      605.05600920    0.00000000
                                                     2       11.9058155     -726.96418460    0.00000000
                                                     2        8.5100832      396.32748830    0.00000000
                                      D - F
                                                     0       49.9994728        3.05087450    0.00000000
                                                     1       39.7477547       22.25065800    0.00000000
                                                     2       11.4321366      674.83576980    0.00000000
                                                     2        9.1790080    -1040.85540480    0.00000000
                                                     2        7.5624429      505.93751470    0.00000000
   21          6
                                   No pseudopotential on this center.
   22          6
                                   No pseudopotential on this center.
   23          6
                                   No pseudopotential on this center.
   24          6
                                   No pseudopotential on this center.
   25          6
                                   No pseudopotential on this center.
   26          1
                                   No pseudopotential on this center.
   27          1
                                   No pseudopotential on this center.
   28          6
                                   No pseudopotential on this center.
   29          1
                                   No pseudopotential on this center.
   30          1
                                   No pseudopotential on this center.
   31          6
                                   No pseudopotential on this center.
   32          6
                                   No pseudopotential on this center.
   33          6
                                   No pseudopotential on this center.
   34          1
                                   No pseudopotential on this center.
   35          1
                                   No pseudopotential on this center.
   36          1
                                   No pseudopotential on this center.
   37          6
                                   No pseudopotential on this center.
   38          8
                                   No pseudopotential on this center.
   39          1
                                   No pseudopotential on this center.
   40          1
                                   No pseudopotential on this center.
   41          1
                                   No pseudopotential on this center.
   42          6
                                   No pseudopotential on this center.
   43          1
                                   No pseudopotential on this center.
   44          1
                                   No pseudopotential on this center.
   45          1
                                   No pseudopotential on this center.
   46          8
                                   No pseudopotential on this center.
   47          1
                                   No pseudopotential on this center.
   48          1
                                   No pseudopotential on this center.
   49          6
                                   No pseudopotential on this center.
   50          1
                                   No pseudopotential on this center.
   51          1
                                   No pseudopotential on this center.
   52          1
                                   No pseudopotential on this center.
   53          1
                                   No pseudopotential on this center.
   54          6
                                   No pseudopotential on this center.
   55          1
                                   No pseudopotential on this center.
   56          1
                                   No pseudopotential on this center.
   57          1
                                   No pseudopotential on this center.
   58          6
                                   No pseudopotential on this center.
   59          1
                                   No pseudopotential on this center.
   60          1
                                   No pseudopotential on this center.
   61          1
                                   No pseudopotential on this center.
   62          6
                                   No pseudopotential on this center.
   63          1
                                   No pseudopotential on this center.
   64          1
                                   No pseudopotential on this center.
   65          1
                                   No pseudopotential on this center.
 ======================================================================================================
 There are   666 symmetry adapted cartesian basis functions of A   symmetry.
 There are   634 symmetry adapted basis functions of A   symmetry.
   634 basis functions,  1169 primitive gaussians,   666 cartesian basis functions
   125 alpha electrons      125 beta electrons
       nuclear repulsion energy      3993.1412089138 Hartrees.
 NAtoms=   65 NActive=   65 NUniq=   65 SFac= 1.00D+00 NAtFMM=   60 NAOKFM=T Big=T
 Integral buffers will be    131072 words long.
 Raffenetti 2 integral format.
 Two-electron integral symmetry is turned on.
 Standard density basis: Auto (5D, 7F)
  2775 Density fitting functions
 There are  2775 symmetry adapted density basis functions of A   symmetry.
 One-electron integrals computed using PRISM.
   1 Symmetry operations used in ECPInt.
 ECPInt:  NShTT=   25878 NPrTT=  135610 LenC2=   23008 LenP2D=   71697.
 LDataN:  DoStor=T MaxTD1= 5 Len=  102
 NBasis=   634 RedAO= T EigKep=  1.04D-06  NBF=   634
 NBsUse=   633 1.00D-06 EigRej=  3.79D-07 NBFU=   633
 Defaulting to unpruned grid for atomic number  46.
 ExpMin= 2.62D-02 ExpMax= 2.52D+04 ExpMxC= 3.78D+03 IAcc=3 IRadAn=         5 AccDes= 0.00D+00
 Harris functional with IExCor= 1009 and IRadAn=       5 diagonalized for initial guess.
 HarFok:  IExCor= 1009 AccDes= 0.00D+00 IRadAn=         5 IDoV= 1 UseB2=F ITyADJ=14
 ICtDFT=  3500011 ScaDFX=  1.000000  1.000000  1.000000  1.000000
 Defaulting to unpruned grid for atomic number  46.
 Defaulting to unpruned grid for atomic number  46.
 Defaulting to unpruned grid for atomic number  46.
 Defaulting to unpruned grid for atomic number  46.
 Defaulting to unpruned grid for atomic number  46.
 Defaulting to unpruned grid for atomic number  46.
 Defaulting to unpruned grid for atomic number  46.
 Defaulting to unpruned grid for atomic number  46.
 Defaulting to unpruned grid for atomic number  46.
 Defaulting to unpruned grid for atomic number  46.
 Defaulting to unpruned grid for atomic number  46.
 Defaulting to unpruned grid for atomic number  46.
 Defaulting to unpruned grid for atomic number  46.
 Defaulting to unpruned grid for atomic number  46.
 Defaulting to unpruned grid for atomic number  46.
 Defaulting to unpruned grid for atomic number  46.
 Defaulting to unpruned grid for atomic number  46.
 Defaulting to unpruned grid for atomic number  46.
 Defaulting to unpruned grid for atomic number  46.
 Defaulting to unpruned grid for atomic number  46.
 Defaulting to unpruned grid for atomic number  46.
 Defaulting to unpruned grid for atomic number  46.
 Defaulting to unpruned grid for atomic number  46.
 Defaulting to unpruned grid for atomic number  46.
 Defaulting to unpruned grid for atomic number  46.
 Defaulting to unpruned grid for atomic number  46.
 Defaulting to unpruned grid for atomic number  46.
 Defaulting to unpruned grid for atomic number  46.
 FoFCou: FMM=F IPFlag=           0 FMFlag=      100000 FMFlg1=        2001
         NFxFlg=           0 DoJE=T BraDBF=F KetDBF=T FulRan=T
         wScrn=  0.000000 ICntrl=     500 IOpCl=  0 I1Cent=   200000004 NGrid=           0
         NMat0=    1 NMatS0=      1 NMatT0=    0 NMatD0=    1 NMtDS0=    0 NMtDT0=    0
 Petite list used in FoFCou.
 Requested convergence on RMS density matrix=1.00D-08 within 128 cycles.
 Requested convergence on MAX density matrix=1.00D-06.
 Requested convergence on             energy=1.00D-06.
 No special actions if energy rises.
 Defaulting to unpruned grid for atomic number  46.
 Defaulting to unpruned grid for atomic number  46.
 Defaulting to unpruned grid for atomic number  46.
 Defaulting to unpruned grid for atomic number  46.
 Defaulting to unpruned grid for atomic number  46.
 Defaulting to unpruned grid for atomic number  46.
 Defaulting to unpruned grid for atomic number  46.
 Defaulting to unpruned grid for atomic number  46.
 Defaulting to unpruned grid for atomic number  46.
 Defaulting to unpruned grid for atomic number  46.
 Defaulting to unpruned grid for atomic number  46.
 Defaulting to unpruned grid for atomic number  46.
 Defaulting to unpruned grid for atomic number  46.
 Defaulting to unpruned grid for atomic number  46.
 Defaulting to unpruned grid for atomic number  46.
 Defaulting to unpruned grid for atomic number  46.
 Defaulting to unpruned grid for atomic number  46.
 Defaulting to unpruned grid for atomic number  46.
 Defaulting to unpruned grid for atomic number  46.
 Defaulting to unpruned grid for atomic number  46.
 Defaulting to unpruned grid for atomic number  46.
 Defaulting to unpruned grid for atomic number  46.
 Defaulting to unpruned grid for atomic number  46.
 Defaulting to unpruned grid for atomic number  46.
 Defaulting to unpruned grid for atomic number  46.
 Defaulting to unpruned grid for atomic number  46.
 Defaulting to unpruned grid for atomic number  46.
 Defaulting to unpruned grid for atomic number  46.
 EnCoef did   100 forward-backward iterations
 EnCoef did   100 forward-backward iterations
 EnCoef did   100 forward-backward iterations
 Restarting incremental Fock formation.
 SCF Done:  E(RM06) =  -1856.02014031     A.U. after   26 cycles
            NFock= 26  Conv=0.86D-08     -V/T= 2.0508
 DoSCS=F DFT=T ScalE2(SS,OS)=  1.000000  1.000000
 Range of M.O.s used for correlation:     1   633
 NBasis=   634 NAE=   125 NBE=   125 NFC=     0 NFV=     0
 NROrb=    633 NOA=   125 NOB=   125 NVA=   508 NVB=   508

 **** Warning!!: The largest alpha MO coefficient is  0.15020180D+03

   1 Symmetry operations used in ECPInt.
 ECPInt:  NShTT=   25878 NPrTT=  135610 LenC2=   23008 LenP2D=   71697.
 LDataN:  DoStor=T MaxTD1= 6 Len=  172
 Number of processors reduced to   9 by ecpmxn.
 Symmetrizing basis deriv contribution to polar:
 IMax=3 JMax=2 DiffMx= 0.00D+00
 G2DrvN: will do    66 centers at a time, making    1 passes.
 Calling FoFCou, ICntrl=  3107 FMM=T I1Cent=   0 AccDes= 0.00D+00.
 Defaulting to unpruned grid for atomic number  46.
 Defaulting to unpruned grid for atomic number  46.
 Defaulting to unpruned grid for atomic number  46.
 Defaulting to unpruned grid for atomic number  46.
 Defaulting to unpruned grid for atomic number  46.
 Defaulting to unpruned grid for atomic number  46.
 Defaulting to unpruned grid for atomic number  46.
 Defaulting to unpruned grid for atomic number  46.
 Defaulting to unpruned grid for atomic number  46.
 Defaulting to unpruned grid for atomic number  46.
 Defaulting to unpruned grid for atomic number  46.
 Defaulting to unpruned grid for atomic number  46.
 Defaulting to unpruned grid for atomic number  46.
 Defaulting to unpruned grid for atomic number  46.
 Defaulting to unpruned grid for atomic number  46.
 Defaulting to unpruned grid for atomic number  46.
 Defaulting to unpruned grid for atomic number  46.
 Defaulting to unpruned grid for atomic number  46.
 Defaulting to unpruned grid for atomic number  46.
 Defaulting to unpruned grid for atomic number  46.
 Defaulting to unpruned grid for atomic number  46.
 Defaulting to unpruned grid for atomic number  46.
 Defaulting to unpruned grid for atomic number  46.
 Defaulting to unpruned grid for atomic number  46.
 Defaulting to unpruned grid for atomic number  46.
 Defaulting to unpruned grid for atomic number  46.
 Defaulting to unpruned grid for atomic number  46.
 Defaulting to unpruned grid for atomic number  46.
 End of G2Drv F.D. properties file   721 does not exist.
 End of G2Drv F.D. properties file   722 does not exist.
 End of G2Drv F.D. properties file   788 does not exist.
          IDoAtm=11111111111111111111111111111111111111111111111111
          IDoAtm=111111111111111
          Differentiating once with respect to electric field.
                with respect to dipole field.
          Differentiating once with respect to nuclear coordinates.
 Defaulting to unpruned grid for atomic number  46.
 CalDSu exits because no D1Ps are significant.
 Defaulting to unpruned grid for atomic number  46.
 Defaulting to unpruned grid for atomic number  46.
 Defaulting to unpruned grid for atomic number  46.
 Defaulting to unpruned grid for atomic number  46.
 Defaulting to unpruned grid for atomic number  46.
 Defaulting to unpruned grid for atomic number  46.
 Defaulting to unpruned grid for atomic number  46.
 Defaulting to unpruned grid for atomic number  46.
 Defaulting to unpruned grid for atomic number  46.
 Defaulting to unpruned grid for atomic number  46.
 Defaulting to unpruned grid for atomic number  46.
 Defaulting to unpruned grid for atomic number  46.
 Defaulting to unpruned grid for atomic number  46.
 Defaulting to unpruned grid for atomic number  46.
 Defaulting to unpruned grid for atomic number  46.
 Defaulting to unpruned grid for atomic number  46.
 Defaulting to unpruned grid for atomic number  46.
 Defaulting to unpruned grid for atomic number  46.
 Defaulting to unpruned grid for atomic number  46.
 Defaulting to unpruned grid for atomic number  46.
 Defaulting to unpruned grid for atomic number  46.
 Defaulting to unpruned grid for atomic number  46.
 Defaulting to unpruned grid for atomic number  46.
 Defaulting to unpruned grid for atomic number  46.
 Defaulting to unpruned grid for atomic number  46.
 Defaulting to unpruned grid for atomic number  46.
 Defaulting to unpruned grid for atomic number  46.
 Defaulting to unpruned grid for atomic number  46.
          There are   198 degrees of freedom in the 1st order CPHF.  IDoFFX=6 NUNeed=     3.
    198 vectors produced by pass  0 Test12= 6.35D-14 1.00D-09 XBig12= 4.05D+02 8.19D+00.
 AX will form    84 AO Fock derivatives at one time.
    198 vectors produced by pass  1 Test12= 6.35D-14 1.00D-09 XBig12= 1.14D+02 1.64D+00.
    195 vectors produced by pass  2 Test12= 6.35D-14 1.00D-09 XBig12= 2.61D+00 1.73D-01.
    195 vectors produced by pass  3 Test12= 6.35D-14 1.00D-09 XBig12= 1.64D-02 1.04D-02.
    195 vectors produced by pass  4 Test12= 6.35D-14 1.00D-09 XBig12= 7.25D-05 7.57D-04.
    195 vectors produced by pass  5 Test12= 6.35D-14 1.00D-09 XBig12= 2.07D-07 2.50D-05.
    195 vectors produced by pass  6 Test12= 6.35D-14 1.00D-09 XBig12= 5.31D-10 1.17D-06.
    194 vectors produced by pass  7 Test12= 6.35D-14 1.00D-09 XBig12= 3.79D-12 1.00D-07.
    193 vectors produced by pass  8 Test12= 6.35D-14 1.00D-09 XBig12= 2.97D-13 2.40D-08.
    193 vectors produced by pass  9 Test12= 6.35D-14 1.00D-09 XBig12= 1.16D-13 1.46D-08.
    188 vectors produced by pass 10 Test12= 6.35D-14 1.00D-09 XBig12= 7.61D-14 1.34D-08.
    158 vectors produced by pass 11 Test12= 6.35D-14 1.00D-09 XBig12= 6.71D-14 9.87D-09.
    143 vectors produced by pass 12 Test12= 6.35D-14 1.00D-09 XBig12= 3.27D-14 6.53D-09.
    116 vectors produced by pass 13 Test12= 6.35D-14 1.00D-09 XBig12= 2.17D-14 6.19D-09.
    115 vectors produced by pass 14 Test12= 6.35D-14 1.00D-09 XBig12= 2.78D-14 5.64D-09.
    114 vectors produced by pass 15 Test12= 6.35D-14 1.00D-09 XBig12= 3.02D-14 5.38D-09.
     53 vectors produced by pass 16 Test12= 6.35D-14 1.00D-09 XBig12= 2.16D-14 4.81D-09.
     46 vectors produced by pass 17 Test12= 6.35D-14 1.00D-09 XBig12= 1.51D-14 5.20D-09.
     46 vectors produced by pass 18 Test12= 6.35D-14 1.00D-09 XBig12= 1.96D-14 5.69D-09.
     34 vectors produced by pass 19 Test12= 6.35D-14 1.00D-09 XBig12= 8.84D-15 3.18D-09.
     34 vectors produced by pass 20 Test12= 6.35D-14 1.00D-09 XBig12= 1.65D-14 3.99D-09.
     34 vectors produced by pass 21 Test12= 6.35D-14 1.00D-09 XBig12= 1.17D-14 3.61D-09.
     13 vectors produced by pass 22 Test12= 6.35D-14 1.00D-09 XBig12= 4.62D-15 2.76D-09.
     13 vectors produced by pass 23 Test12= 6.35D-14 1.00D-09 XBig12= 1.91D-14 4.32D-09.
     13 vectors produced by pass 24 Test12= 6.35D-14 1.00D-09 XBig12= 8.07D-15 3.09D-09.
     13 vectors produced by pass 25 Test12= 6.35D-14 1.00D-09 XBig12= 9.76D-15 3.05D-09.
     13 vectors produced by pass 26 Test12= 6.35D-14 1.00D-09 XBig12= 8.61D-15 3.42D-09.
     13 vectors produced by pass 27 Test12= 6.35D-14 1.00D-09 XBig12= 1.14D-14 4.00D-09.
      4 vectors produced by pass 28 Test12= 6.35D-14 1.00D-09 XBig12= 1.87D-15 1.39D-09.
      4 vectors produced by pass 29 Test12= 6.35D-14 1.00D-09 XBig12= 2.16D-14 5.01D-09.
      4 vectors produced by pass 30 Test12= 6.35D-14 1.00D-09 XBig12= 8.49D-15 2.89D-09.
      4 vectors produced by pass 31 Test12= 6.35D-14 1.00D-09 XBig12= 7.47D-15 2.99D-09.
      4 vectors produced by pass 32 Test12= 6.35D-14 1.00D-09 XBig12= 7.83D-15 2.71D-09.
      4 vectors produced by pass 33 Test12= 6.35D-14 1.00D-09 XBig12= 5.41D-15 2.65D-09.
      4 vectors produced by pass 34 Test12= 6.35D-14 1.00D-09 XBig12= 9.26D-15 3.80D-09.
      4 vectors produced by pass 35 Test12= 6.35D-14 1.00D-09 XBig12= 5.25D-15 2.48D-09.
      4 vectors produced by pass 36 Test12= 6.35D-14 1.00D-09 XBig12= 3.90D-15 2.05D-09.
      4 vectors produced by pass 37 Test12= 6.35D-14 1.00D-09 XBig12= 3.63D-15 1.97D-09.
      4 vectors produced by pass 38 Test12= 6.35D-14 1.00D-09 XBig12= 1.36D-14 3.82D-09.
      4 vectors produced by pass 39 Test12= 6.35D-14 1.00D-09 XBig12= 5.27D-15 2.20D-09.
      4 vectors produced by pass 40 Test12= 6.35D-14 1.00D-09 XBig12= 2.76D-15 1.75D-09.
      4 vectors produced by pass 41 Test12= 6.35D-14 1.00D-09 XBig12= 2.99D-15 1.92D-09.
      4 vectors produced by pass 42 Test12= 6.35D-14 1.00D-09 XBig12= 9.98D-15 3.19D-09.
      4 vectors produced by pass 43 Test12= 6.35D-14 1.00D-09 XBig12= 4.94D-15 2.24D-09.
      4 vectors produced by pass 44 Test12= 6.35D-14 1.00D-09 XBig12= 1.09D-14 3.42D-09.
      4 vectors produced by pass 45 Test12= 6.35D-14 1.00D-09 XBig12= 5.36D-15 2.43D-09.
      4 vectors produced by pass 46 Test12= 6.35D-14 1.00D-09 XBig12= 7.61D-15 2.94D-09.
      4 vectors produced by pass 47 Test12= 6.35D-14 1.00D-09 XBig12= 3.89D-15 2.00D-09.
      4 vectors produced by pass 48 Test12= 6.35D-14 1.00D-09 XBig12= 1.73D-15 1.44D-09.
      4 vectors produced by pass 49 Test12= 6.35D-14 1.00D-09 XBig12= 5.87D-15 2.52D-09.
      4 vectors produced by pass 50 Test12= 6.35D-14 1.00D-09 XBig12= 8.61D-15 2.96D-09.
      4 vectors produced by pass 51 Test12= 6.35D-14 1.00D-09 XBig12= 2.09D-15 1.50D-09.
      4 vectors produced by pass 52 Test12= 6.35D-14 1.00D-09 XBig12= 3.80D-15 2.03D-09.
      4 vectors produced by pass 53 Test12= 6.35D-14 1.00D-09 XBig12= 4.45D-15 2.25D-09.
      4 vectors produced by pass 54 Test12= 6.35D-14 1.00D-09 XBig12= 4.83D-15 2.37D-09.
      4 vectors produced by pass 55 Test12= 6.35D-14 1.00D-09 XBig12= 7.38D-15 2.87D-09.
      4 vectors produced by pass 56 Test12= 6.35D-14 1.00D-09 XBig12= 2.42D-15 1.55D-09.
      4 vectors produced by pass 57 Test12= 6.35D-14 1.00D-09 XBig12= 3.62D-15 1.98D-09.
      4 vectors produced by pass 58 Test12= 6.35D-14 1.00D-09 XBig12= 7.41D-15 2.85D-09.
      4 vectors produced by pass 59 Test12= 6.35D-14 1.00D-09 XBig12= 8.02D-15 2.99D-09.
      4 vectors produced by pass 60 Test12= 6.35D-14 1.00D-09 XBig12= 9.76D-15 3.30D-09.
      4 vectors produced by pass 61 Test12= 6.35D-14 1.00D-09 XBig12= 4.71D-15 2.17D-09.
      4 vectors produced by pass 62 Test12= 6.35D-14 1.00D-09 XBig12= 3.86D-15 2.44D-09.
      4 vectors produced by pass 63 Test12= 6.35D-14 1.00D-09 XBig12= 3.18D-15 1.99D-09.
      4 vectors produced by pass 64 Test12= 6.35D-14 1.00D-09 XBig12= 7.76D-15 2.77D-09.
      4 vectors produced by pass 65 Test12= 6.35D-14 1.00D-09 XBig12= 8.45D-15 2.73D-09.
      4 vectors produced by pass 66 Test12= 6.35D-14 1.00D-09 XBig12= 3.18D-15 1.96D-09.
      4 vectors produced by pass 67 Test12= 6.35D-14 1.00D-09 XBig12= 4.53D-15 2.41D-09.
      4 vectors produced by pass 68 Test12= 6.35D-14 1.00D-09 XBig12= 1.71D-14 4.59D-09.
      4 vectors produced by pass 69 Test12= 6.35D-14 1.00D-09 XBig12= 1.73D-15 1.41D-09.
      4 vectors produced by pass 70 Test12= 6.35D-14 1.00D-09 XBig12= 8.75D-15 2.63D-09.
      4 vectors produced by pass 71 Test12= 6.35D-14 1.00D-09 XBig12= 5.56D-15 2.57D-09.
      4 vectors produced by pass 72 Test12= 6.35D-14 1.00D-09 XBig12= 2.27D-15 1.67D-09.
      4 vectors produced by pass 73 Test12= 6.35D-14 1.00D-09 XBig12= 6.28D-15 2.41D-09.
      4 vectors produced by pass 74 Test12= 6.35D-14 1.00D-09 XBig12= 1.64D-15 1.31D-09.
      4 vectors produced by pass 75 Test12= 6.35D-14 1.00D-09 XBig12= 2.46D-15 1.74D-09.
      4 vectors produced by pass 76 Test12= 6.35D-14 1.00D-09 XBig12= 5.64D-15 2.43D-09.
      4 vectors produced by pass 77 Test12= 6.35D-14 1.00D-09 XBig12= 2.90D-15 1.76D-09.
      4 vectors produced by pass 78 Test12= 6.35D-14 1.00D-09 XBig12= 4.27D-15 2.11D-09.
      4 vectors produced by pass 79 Test12= 6.35D-14 1.00D-09 XBig12= 4.56D-15 2.34D-09.
      4 vectors produced by pass 80 Test12= 6.35D-14 1.00D-09 XBig12= 8.30D-15 3.44D-09.
      4 vectors produced by pass 81 Test12= 6.35D-14 1.00D-09 XBig12= 5.80D-15 2.58D-09.
      4 vectors produced by pass 82 Test12= 6.35D-14 1.00D-09 XBig12= 9.33D-15 2.76D-09.
      4 vectors produced by pass 83 Test12= 6.35D-14 1.00D-09 XBig12= 1.22D-14 3.29D-09.
      4 vectors produced by pass 84 Test12= 6.35D-14 1.00D-09 XBig12= 1.76D-15 1.43D-09.
      4 vectors produced by pass 85 Test12= 6.35D-14 1.00D-09 XBig12= 9.74D-15 3.50D-09.
      4 vectors produced by pass 86 Test12= 6.35D-14 1.00D-09 XBig12= 4.59D-15 2.59D-09.
      4 vectors produced by pass 87 Test12= 6.35D-14 1.00D-09 XBig12= 4.27D-15 2.29D-09.
      4 vectors produced by pass 88 Test12= 6.35D-14 1.00D-09 XBig12= 4.45D-15 2.46D-09.
      4 vectors produced by pass 89 Test12= 6.35D-14 1.00D-09 XBig12= 2.36D-15 1.52D-09.
      4 vectors produced by pass 90 Test12= 6.35D-14 1.00D-09 XBig12= 1.64D-15 1.22D-09.
      4 vectors produced by pass 91 Test12= 6.35D-14 1.00D-09 XBig12= 1.78D-15 1.52D-09.
      4 vectors produced by pass 92 Test12= 6.35D-14 1.00D-09 XBig12= 4.57D-15 2.28D-09.
      4 vectors produced by pass 93 Test12= 6.35D-14 1.00D-09 XBig12= 2.49D-15 1.55D-09.
      4 vectors produced by pass 94 Test12= 6.35D-14 1.00D-09 XBig12= 4.01D-15 1.90D-09.
      4 vectors produced by pass 95 Test12= 6.35D-14 1.00D-09 XBig12= 2.35D-15 1.44D-09.
      4 vectors produced by pass 96 Test12= 6.35D-14 1.00D-09 XBig12= 6.96D-15 2.55D-09.
      4 vectors produced by pass 97 Test12= 6.35D-14 1.00D-09 XBig12= 2.59D-15 1.67D-09.
      4 vectors produced by pass 98 Test12= 6.35D-14 1.00D-09 XBig12= 7.29D-15 2.74D-09.
      4 vectors produced by pass 99 Test12= 6.35D-14 1.00D-09 XBig12= 4.99D-15 2.33D-09.
      4 vectors produced by pass100 Test12= 6.35D-14 1.00D-09 XBig12= 2.30D-15 1.69D-09.
      4 vectors produced by pass101 Test12= 6.35D-14 1.00D-09 XBig12= 3.70D-15 1.95D-09.
      4 vectors produced by pass102 Test12= 6.35D-14 1.00D-09 XBig12= 2.17D-15 1.70D-09.
      4 vectors produced by pass103 Test12= 6.35D-14 1.00D-09 XBig12= 3.38D-15 1.91D-09.
      4 vectors produced by pass104 Test12= 6.35D-14 1.00D-09 XBig12= 3.99D-15 2.11D-09.
      4 vectors produced by pass105 Test12= 6.35D-14 1.00D-09 XBig12= 5.40D-15 2.44D-09.
      4 vectors produced by pass106 Test12= 6.35D-14 1.00D-09 XBig12= 4.79D-15 2.02D-09.
      4 vectors produced by pass107 Test12= 6.35D-14 1.00D-09 XBig12= 6.44D-15 2.68D-09.
      4 vectors produced by pass108 Test12= 6.35D-14 1.00D-09 XBig12= 2.00D-15 1.39D-09.
      4 vectors produced by pass109 Test12= 6.35D-14 1.00D-09 XBig12= 1.80D-15 1.31D-09.
      4 vectors produced by pass110 Test12= 6.35D-14 1.00D-09 XBig12= 3.38D-15 2.38D-09.
      4 vectors produced by pass111 Test12= 6.35D-14 1.00D-09 XBig12= 2.38D-15 1.79D-09.
      4 vectors produced by pass112 Test12= 6.35D-14 1.00D-09 XBig12= 5.49D-15 2.62D-09.
      4 vectors produced by pass113 Test12= 6.35D-14 1.00D-09 XBig12= 2.14D-15 1.48D-09.
      4 vectors produced by pass114 Test12= 6.35D-14 1.00D-09 XBig12= 3.11D-15 1.75D-09.
      4 vectors produced by pass115 Test12= 6.35D-14 1.00D-09 XBig12= 1.96D-15 1.36D-09.
      4 vectors produced by pass116 Test12= 6.35D-14 1.00D-09 XBig12= 4.70D-15 2.10D-09.
      4 vectors produced by pass117 Test12= 6.35D-14 1.00D-09 XBig12= 4.34D-15 2.11D-09.
      4 vectors produced by pass118 Test12= 6.35D-14 1.00D-09 XBig12= 5.32D-15 2.29D-09.
      4 vectors produced by pass119 Test12= 6.35D-14 1.00D-09 XBig12= 3.52D-15 1.90D-09.
      4 vectors produced by pass120 Test12= 6.35D-14 1.00D-09 XBig12= 5.49D-15 2.56D-09.
      4 vectors produced by pass121 Test12= 6.35D-14 1.00D-09 XBig12= 1.74D-15 1.35D-09.
      4 vectors produced by pass122 Test12= 6.35D-14 1.00D-09 XBig12= 4.13D-15 2.34D-09.
      4 vectors produced by pass123 Test12= 6.35D-14 1.00D-09 XBig12= 4.33D-15 1.99D-09.
      4 vectors produced by pass124 Test12= 6.35D-14 1.00D-09 XBig12= 5.52D-15 2.27D-09.
      4 vectors produced by pass125 Test12= 6.35D-14 1.00D-09 XBig12= 1.84D-15 1.62D-09.
      4 vectors produced by pass126 Test12= 6.35D-14 1.00D-09 XBig12= 3.96D-15 1.94D-09.
      4 vectors produced by pass127 Test12= 6.35D-14 1.00D-09 XBig12= 3.56D-15 2.12D-09.
      4 vectors produced by pass128 Test12= 6.35D-14 1.00D-09 XBig12= 5.36D-15 2.47D-09.
      4 vectors produced by pass129 Test12= 6.35D-14 1.00D-09 XBig12= 1.17D-15 1.19D-09.
      4 vectors produced by pass130 Test12= 6.35D-14 1.00D-09 XBig12= 2.09D-15 1.45D-09.
      4 vectors produced by pass131 Test12= 6.35D-14 1.00D-09 XBig12= 2.81D-15 1.88D-09.
      4 vectors produced by pass132 Test12= 6.35D-14 1.00D-09 XBig12= 2.21D-15 1.41D-09.
      4 vectors produced by pass133 Test12= 6.35D-14 1.00D-09 XBig12= 4.68D-15 2.17D-09.
      3 vectors produced by pass134 Test12= 6.35D-14 1.00D-09 XBig12= 1.28D-15 1.06D-09.
      3 vectors produced by pass135 Test12= 6.35D-14 1.00D-09 XBig12= 7.43D-15 2.53D-09.
      3 vectors produced by pass136 Test12= 6.35D-14 1.00D-09 XBig12= 3.46D-15 2.00D-09.
      3 vectors produced by pass137 Test12= 6.35D-14 1.00D-09 XBig12= 4.80D-15 2.06D-09.
      3 vectors produced by pass138 Test12= 6.35D-14 1.00D-09 XBig12= 3.29D-15 1.71D-09.
      3 vectors produced by pass139 Test12= 6.35D-14 1.00D-09 XBig12= 3.09D-15 2.29D-09.
      3 vectors produced by pass140 Test12= 6.35D-14 1.00D-09 XBig12= 5.24D-15 2.16D-09.
      3 vectors produced by pass141 Test12= 6.35D-14 1.00D-09 XBig12= 3.61D-15 2.00D-09.
      3 vectors produced by pass142 Test12= 6.35D-14 1.00D-09 XBig12= 4.94D-15 2.33D-09.
      3 vectors produced by pass143 Test12= 6.35D-14 1.00D-09 XBig12= 1.16D-15 1.10D-09.
      3 vectors produced by pass144 Test12= 6.35D-14 1.00D-09 XBig12= 5.24D-15 2.30D-09.
      3 vectors produced by pass145 Test12= 6.35D-14 1.00D-09 XBig12= 5.57D-15 2.72D-09.
      3 vectors produced by pass146 Test12= 6.35D-14 1.00D-09 XBig12= 1.98D-15 1.59D-09.
      3 vectors produced by pass147 Test12= 6.35D-14 1.00D-09 XBig12= 6.96D-15 3.30D-09.
      3 vectors produced by pass148 Test12= 6.35D-14 1.00D-09 XBig12= 4.53D-15 2.10D-09.
      3 vectors produced by pass149 Test12= 6.35D-14 1.00D-09 XBig12= 4.76D-15 2.04D-09.
      3 vectors produced by pass150 Test12= 6.35D-14 1.00D-09 XBig12= 2.84D-15 1.85D-09.
      3 vectors produced by pass151 Test12= 6.35D-14 1.00D-09 XBig12= 2.35D-15 1.76D-09.
      3 vectors produced by pass152 Test12= 6.35D-14 1.00D-09 XBig12= 2.37D-15 1.50D-09.
      3 vectors produced by pass153 Test12= 6.35D-14 1.00D-09 XBig12= 6.59D-15 2.51D-09.
      3 vectors produced by pass154 Test12= 6.35D-14 1.00D-09 XBig12= 3.46D-15 1.88D-09.
      3 vectors produced by pass155 Test12= 6.35D-14 1.00D-09 XBig12= 1.75D-15 1.44D-09.
      3 vectors produced by pass156 Test12= 6.35D-14 1.00D-09 XBig12= 6.20D-15 2.55D-09.
      3 vectors produced by pass157 Test12= 6.35D-14 1.00D-09 XBig12= 4.56D-15 2.29D-09.
      3 vectors produced by pass158 Test12= 6.35D-14 1.00D-09 XBig12= 2.47D-15 1.69D-09.
      3 vectors produced by pass159 Test12= 6.35D-14 1.00D-09 XBig12= 6.28D-15 2.62D-09.
      1 vectors produced by pass160 Test12= 6.35D-14 1.00D-09 XBig12= 8.72D-16 1.11D-09.
 InvSVY:  IOpt=1 It=  1 EMax= 2.13D-14
 Solved reduced A of dimension  3613 with   198 vectors.
 Isotropic polarizability for W=    0.000000      345.74 Bohr**3.
 End of Minotr F.D. properties file   721 does not exist.
 End of Minotr F.D. properties file   722 does not exist.
 End of Minotr F.D. properties file   788 does not exist.

 **********************************************************************

            Population analysis using the SCF density.

 **********************************************************************

 Orbital symmetries:
       Occupied  (A) (A) (A) (A) (A) (A) (A) (A) (A) (A) (A) (A)
                 (A) (A) (A) (A) (A) (A) (A) (A) (A) (A) (A) (A)
                 (A) (A) (A) (A) (A) (A) (A) (A) (A) (A) (A) (A)
                 (A) (A) (A) (A) (A) (A) (A) (A) (A) (A) (A) (A)
                 (A) (A) (A) (A) (A) (A) (A) (A) (A) (A) (A) (A)
                 (A) (A) (A) (A) (A) (A) (A) (A) (A) (A) (A) (A)
                 (A) (A) (A) (A) (A) (A) (A) (A) (A) (A) (A) (A)
                 (A) (A) (A) (A) (A) (A) (A) (A) (A) (A) (A) (A)
                 (A) (A) (A) (A) (A) (A) (A) (A) (A) (A) (A) (A)
                 (A) (A) (A) (A) (A) (A) (A) (A) (A) (A) (A) (A)
                 (A) (A) (A) (A) (A)
       Virtual   (A) (A) (A) (A) (A) (A) (A) (A) (A) (A) (A) (A)
                 (A) (A) (A) (A) (A) (A) (A) (A) (A) (A) (A) (A)
                 (A) (A) (A) (A) (A) (A) (A) (A) (A) (A) (A) (A)
                 (A) (A) (A) (A) (A) (A) (A) (A) (A) (A) (A) (A)
                 (A) (A) (A) (A) (A) (A) (A) (A) (A) (A) (A) (A)
                 (A) (A) (A) (A) (A) (A) (A) (A) (A) (A) (A) (A)
                 (A) (A) (A) (A) (A) (A) (A) (A) (A) (A) (A) (A)
                 (A) (A) (A) (A) (A) (A) (A) (A) (A) (A) (A) (A)
                 (A) (A) (A) (A) (A) (A) (A) (A) (A) (A) (A) (A)
                 (A) (A) (A) (A) (A) (A) (A) (A) (A) (A) (A) (A)
                 (A) (A) (A) (A) (A) (A) (A) (A) (A) (A) (A) (A)
                 (A) (A) (A) (A) (A) (A) (A) (A) (A) (A) (A) (A)
                 (A) (A) (A) (A) (A) (A) (A) (A) (A) (A) (A) (A)
                 (A) (A) (A) (A) (A) (A) (A) (A) (A) (A) (A) (A)
                 (A) (A) (A) (A) (A) (A) (A) (A) (A) (A) (A) (A)
                 (A) (A) (A) (A) (A) (A) (A) (A) (A) (A) (A) (A)
                 (A) (A) (A) (A) (A) (A) (A) (A) (A) (A) (A) (A)
                 (A) (A) (A) (A) (A) (A) (A) (A) (A) (A) (A) (A)
                 (A) (A) (A) (A) (A) (A) (A) (A) (A) (A) (A) (A)
                 (A) (A) (A) (A) (A) (A) (A) (A) (A) (A) (A) (A)
                 (A) (A) (A) (A) (A) (A) (A) (A) (A) (A) (A) (A)
                 (A) (A) (A) (A) (A) (A) (A) (A) (A) (A) (A) (A)
                 (A) (A) (A) (A) (A) (A) (A) (A) (A) (A) (A) (A)
                 (A) (A) (A) (A) (A) (A) (A) (A) (A) (A) (A) (A)
                 (A) (A) (A) (A) (A) (A) (A) (A) (A) (A) (A) (A)
                 (A) (A) (A) (A) (A) (A) (A) (A) (A) (A) (A) (A)
                 (A) (A) (A) (A) (A) (A) (A) (A) (A) (A) (A) (A)
                 (A) (A) (A) (A) (A) (A) (A) (A) (A) (A) (A) (A)
                 (A) (A) (A) (A) (A) (A) (A) (A) (A) (A) (A) (A)
                 (A) (A) (A) (A) (A) (A) (A) (A) (A) (A) (A) (A)
                 (A) (A) (A) (A) (A) (A) (A) (A) (A) (A) (A) (A)
                 (A) (A) (A) (A) (A) (A) (A) (A) (A) (A) (A) (A)
                 (A) (A) (A) (A) (A) (A) (A) (A) (A) (A) (A) (A)
                 (A) (A) (A) (A) (A) (A) (A) (A) (A) (A) (A) (A)
                 (A) (A) (A) (A) (A) (A) (A) (A) (A) (A) (A) (A)
                 (A) (A) (A) (A) (A) (A) (A) (A) (A) (A) (A) (A)
                 (A) (A) (A) (A) (A) (A) (A) (A) (A) (A) (A) (A)
                 (A) (A) (A) (A) (A) (A) (A) (A) (A) (A) (A) (A)
                 (A) (A) (A) (A) (A) (A) (A) (A) (A) (A) (A) (A)
                 (A) (A) (A) (A) (A) (A) (A) (A) (A) (A) (A) (A)
                 (A) (A) (A) (A) (A) (A) (A) (A) (A) (A) (A) (A)
                 (A) (A) (A) (A) (A) (A) (A) (A) (A) (A) (A) (A)
                 (A) (A) (A) (A)
 The electronic state is 1-A.
 Alpha  occ. eigenvalues -- -101.84161 -19.41573 -19.35573 -19.31085 -14.57666
 Alpha  occ. eigenvalues --  -14.54971 -10.49704 -10.48724 -10.45134 -10.43497
 Alpha  occ. eigenvalues --  -10.43117 -10.42505 -10.41761 -10.41636 -10.41318
 Alpha  occ. eigenvalues --  -10.41144 -10.40677 -10.40542 -10.39943 -10.37507
 Alpha  occ. eigenvalues --  -10.36888 -10.36599 -10.36535 -10.36404 -10.35148
 Alpha  occ. eigenvalues --  -10.34253 -10.33970 -10.33790 -10.33660 -10.32642
 Alpha  occ. eigenvalues --   -9.71333  -7.42600  -7.41585  -7.41501  -3.45748
 Alpha  occ. eigenvalues --   -2.20151  -2.19913  -2.16800  -1.26875  -1.17816
 Alpha  occ. eigenvalues --   -1.14978  -1.13086  -1.07055  -1.01074  -0.97310
 Alpha  occ. eigenvalues --   -0.96632  -0.95745  -0.95364  -0.92201  -0.88957
 Alpha  occ. eigenvalues --   -0.87916  -0.87716  -0.84054  -0.82367  -0.81201
 Alpha  occ. eigenvalues --   -0.80310  -0.79692  -0.79176  -0.78795  -0.78085
 Alpha  occ. eigenvalues --   -0.76472  -0.72354  -0.71414  -0.70091  -0.68718
 Alpha  occ. eigenvalues --   -0.67144  -0.66494  -0.65325  -0.65177  -0.64484
 Alpha  occ. eigenvalues --   -0.63606  -0.61529  -0.61229  -0.60485  -0.60266
 Alpha  occ. eigenvalues --   -0.59309  -0.58680  -0.58574  -0.57285  -0.57237
 Alpha  occ. eigenvalues --   -0.56808  -0.56500  -0.55671  -0.55563  -0.55021
 Alpha  occ. eigenvalues --   -0.54980  -0.54169  -0.53569  -0.52929  -0.52569
 Alpha  occ. eigenvalues --   -0.52447  -0.52149  -0.51854  -0.51522  -0.51121
 Alpha  occ. eigenvalues --   -0.50686  -0.50560  -0.49247  -0.48941  -0.48549
 Alpha  occ. eigenvalues --   -0.48431  -0.48250  -0.47794  -0.47701  -0.47464
 Alpha  occ. eigenvalues --   -0.47094  -0.46860  -0.46575  -0.45694  -0.44893
 Alpha  occ. eigenvalues --   -0.44572  -0.44509  -0.44233  -0.44054  -0.43090
 Alpha  occ. eigenvalues --   -0.42213  -0.41750  -0.41213  -0.40281  -0.39880
 Alpha  occ. eigenvalues --   -0.39006  -0.37871  -0.36679  -0.34824  -0.34508
 Alpha virt. eigenvalues --   -0.19570  -0.17728  -0.16656  -0.15742  -0.13108
 Alpha virt. eigenvalues --   -0.12407  -0.11758  -0.11302  -0.10325  -0.10232
 Alpha virt. eigenvalues --   -0.10077  -0.09730  -0.09478  -0.09237  -0.08742
 Alpha virt. eigenvalues --   -0.08526  -0.08235  -0.08125  -0.07951  -0.07599
 Alpha virt. eigenvalues --   -0.07517  -0.07145  -0.06684  -0.06253  -0.06009
 Alpha virt. eigenvalues --   -0.05708  -0.05690  -0.05075  -0.05008  -0.04941
 Alpha virt. eigenvalues --   -0.04623  -0.04036  -0.03959  -0.03577  -0.03237
 Alpha virt. eigenvalues --   -0.03098  -0.02900  -0.02688  -0.02512  -0.02251
 Alpha virt. eigenvalues --   -0.02200  -0.01912  -0.01614  -0.01184  -0.01063
 Alpha virt. eigenvalues --   -0.00877  -0.00668  -0.00527  -0.00041   0.00355
 Alpha virt. eigenvalues --    0.00686   0.00861   0.00926   0.01257   0.01621
 Alpha virt. eigenvalues --    0.01679   0.02022   0.02122   0.02455   0.02544
 Alpha virt. eigenvalues --    0.02938   0.03145   0.03402   0.03596   0.03971
 Alpha virt. eigenvalues --    0.04031   0.04147   0.04552   0.04955   0.05207
 Alpha virt. eigenvalues --    0.05221   0.05338   0.05573   0.05947   0.05987
 Alpha virt. eigenvalues --    0.06352   0.06557   0.06687   0.06777   0.07115
 Alpha virt. eigenvalues --    0.07460   0.07670   0.07872   0.07994   0.08168
 Alpha virt. eigenvalues --    0.08258   0.08424   0.08694   0.09031   0.09251
 Alpha virt. eigenvalues --    0.09394   0.09559   0.09850   0.09931   0.10200
 Alpha virt. eigenvalues --    0.10276   0.10525   0.10625   0.11059   0.11155
 Alpha virt. eigenvalues --    0.11286   0.11549   0.11838   0.12056   0.12250
 Alpha virt. eigenvalues --    0.12373   0.12589   0.12821   0.12918   0.13180
 Alpha virt. eigenvalues --    0.13390   0.13566   0.13688   0.14242   0.14499
 Alpha virt. eigenvalues --    0.14790   0.14827   0.15086   0.15236   0.15441
 Alpha virt. eigenvalues --    0.15540   0.15691   0.15871   0.16118   0.16187
 Alpha virt. eigenvalues --    0.16518   0.16647   0.16858   0.17275   0.17604
 Alpha virt. eigenvalues --    0.17753   0.18091   0.18487   0.18597   0.18815
 Alpha virt. eigenvalues --    0.18999   0.19109   0.19223   0.19428   0.19761
 Alpha virt. eigenvalues --    0.20254   0.20774   0.20811   0.21108   0.21398
 Alpha virt. eigenvalues --    0.21487   0.21632   0.22081   0.22220   0.22697
 Alpha virt. eigenvalues --    0.22740   0.23146   0.23316   0.23544   0.24210
 Alpha virt. eigenvalues --    0.24586   0.24894   0.25154   0.25337   0.25713
 Alpha virt. eigenvalues --    0.25810   0.26161   0.26544   0.26666   0.26907
 Alpha virt. eigenvalues --    0.27594   0.28081   0.28133   0.28971   0.29110
 Alpha virt. eigenvalues --    0.29374   0.29686   0.30127   0.30760   0.31106
 Alpha virt. eigenvalues --    0.31590   0.32184   0.32627   0.32942   0.33121
 Alpha virt. eigenvalues --    0.34132   0.35397   0.35561   0.36029   0.36112
 Alpha virt. eigenvalues --    0.36650   0.37124   0.37628   0.38705   0.39885
 Alpha virt. eigenvalues --    0.40492   0.41866   0.42262   0.43947   0.44731
 Alpha virt. eigenvalues --    0.45801   0.46797   0.49869   0.51323   0.52725
 Alpha virt. eigenvalues --    0.54395   0.54963   0.55713   0.55968   0.57129
 Alpha virt. eigenvalues --    0.57615   0.58316   0.58467   0.59237   0.59461
 Alpha virt. eigenvalues --    0.60365   0.60581   0.60822   0.61609   0.62185
 Alpha virt. eigenvalues --    0.62578   0.63011   0.63402   0.63809   0.64256
 Alpha virt. eigenvalues --    0.64624   0.64655   0.65037   0.65666   0.65781
 Alpha virt. eigenvalues --    0.66033   0.66262   0.66993   0.67356   0.67691
 Alpha virt. eigenvalues --    0.68262   0.68800   0.69322   0.69633   0.70601
 Alpha virt. eigenvalues --    0.70872   0.71196   0.71557   0.72115   0.72564
 Alpha virt. eigenvalues --    0.73107   0.73667   0.74138   0.74775   0.75118
 Alpha virt. eigenvalues --    0.75933   0.76357   0.76926   0.77575   0.78126
 Alpha virt. eigenvalues --    0.78466   0.79022   0.79349   0.79450   0.80071
 Alpha virt. eigenvalues --    0.80568   0.80932   0.81138   0.81951   0.82529
 Alpha virt. eigenvalues --    0.82918   0.83624   0.84098   0.84239   0.84829
 Alpha virt. eigenvalues --    0.85724   0.85813   0.86406   0.86530   0.87192
 Alpha virt. eigenvalues --    0.87581   0.88267   0.88777   0.89437   0.90249
 Alpha virt. eigenvalues --    0.90406   0.90956   0.91295   0.91755   0.92363
 Alpha virt. eigenvalues --    0.92735   0.93631   0.94248   0.94408   0.95245
 Alpha virt. eigenvalues --    0.95609   0.95849   0.96541   0.97261   0.97646
 Alpha virt. eigenvalues --    0.97883   0.98355   0.98599   1.00108   1.00249
 Alpha virt. eigenvalues --    1.00891   1.01145   1.01729   1.02304   1.02985
 Alpha virt. eigenvalues --    1.03841   1.03996   1.04748   1.04807   1.05500
 Alpha virt. eigenvalues --    1.05955   1.06448   1.07171   1.07576   1.08238
 Alpha virt. eigenvalues --    1.08676   1.09760   1.10410   1.10580   1.10755
 Alpha virt. eigenvalues --    1.11815   1.12488   1.13610   1.13712   1.14451
 Alpha virt. eigenvalues --    1.16260   1.16884   1.17860   1.19007   1.19382
 Alpha virt. eigenvalues --    1.19724   1.21271   1.22217   1.22989   1.23732
 Alpha virt. eigenvalues --    1.24082   1.25046   1.25721   1.26242   1.28064
 Alpha virt. eigenvalues --    1.28555   1.28882   1.29683   1.30097   1.31267
 Alpha virt. eigenvalues --    1.31813   1.32430   1.32662   1.33389   1.33813
 Alpha virt. eigenvalues --    1.35810   1.36166   1.37243   1.37978   1.38591
 Alpha virt. eigenvalues --    1.38827   1.39812   1.41662   1.42544   1.43441
 Alpha virt. eigenvalues --    1.43580   1.44358   1.45516   1.46408   1.46957
 Alpha virt. eigenvalues --    1.49520   1.50534   1.51372   1.52516   1.54928
 Alpha virt. eigenvalues --    1.55773   1.56071   1.57222   1.58698   1.59521
 Alpha virt. eigenvalues --    1.60394   1.60701   1.61502   1.62745   1.63600
 Alpha virt. eigenvalues --    1.64689   1.66387   1.66610   1.67751   1.69252
 Alpha virt. eigenvalues --    1.70156   1.71245   1.71761   1.72601   1.73002
 Alpha virt. eigenvalues --    1.73334   1.73913   1.74546   1.75231   1.76014
 Alpha virt. eigenvalues --    1.76769   1.77084   1.78035   1.79187   1.80149
 Alpha virt. eigenvalues --    1.80737   1.81327   1.81767   1.82679   1.83405
 Alpha virt. eigenvalues --    1.84080   1.84744   1.85455   1.86256   1.86889
 Alpha virt. eigenvalues --    1.87156   1.87806   1.89298   1.91187   1.91379
 Alpha virt. eigenvalues --    1.91919   1.93224   1.93729   1.94051   1.95225
 Alpha virt. eigenvalues --    1.95453   1.96381   1.97529   1.98376   1.99058
 Alpha virt. eigenvalues --    1.99607   1.99919   2.00706   2.01398   2.01760
 Alpha virt. eigenvalues --    2.02668   2.03380   2.04319   2.05002   2.05736
 Alpha virt. eigenvalues --    2.06937   2.07166   2.08293   2.08851   2.09873
 Alpha virt. eigenvalues --    2.10290   2.10842   2.11871   2.12112   2.12517
 Alpha virt. eigenvalues --    2.13275   2.13547   2.14706   2.14897   2.15610
 Alpha virt. eigenvalues --    2.16193   2.17044   2.18149   2.18486   2.19173
 Alpha virt. eigenvalues --    2.19695   2.20088   2.20541   2.23365   2.25096
 Alpha virt. eigenvalues --    2.26450   2.27230   2.27846   2.28304   2.30796
 Alpha virt. eigenvalues --    2.32462   2.34566   2.36044   2.36598   2.37222
 Alpha virt. eigenvalues --    2.38399   2.38855   2.40944   2.41138   2.43008
 Alpha virt. eigenvalues --    2.43050   2.44597   2.46532   2.47562   2.48776
 Alpha virt. eigenvalues --    2.49553   2.51395   2.52136   2.53842   2.54691
 Alpha virt. eigenvalues --    2.55187   2.57279   2.58854   2.63013   2.63462
 Alpha virt. eigenvalues --    2.66239   2.67033   2.69217   2.70225   2.70396
 Alpha virt. eigenvalues --    2.71100   2.71228   2.74402   2.75291   2.78138
 Alpha virt. eigenvalues --    2.79678   2.80949   2.82566   2.86267   2.88675
 Alpha virt. eigenvalues --    2.92216   2.98150   3.00150   3.05919   3.14100
 Alpha virt. eigenvalues --    3.15930   3.27213  22.28570
          Condensed to atoms (all electrons):
 Mulliken charges:
               1
     1  C   -0.071544
     2  C   -0.517575
     3  C   -0.187568
     4  C   -0.190707
     5  H    0.254080
     6  C   -0.203967
     7  N    0.183437
     8  H    0.248424
     9  H    0.259803
    10  Cl   0.443804
    11  C   -0.132587
    12  O   -0.239895
    13  N   -0.040148
    14  C   -0.231791
    15  H    0.234372
    16  H    0.236149
    17  C    0.175674
    18  C   -0.906838
    19  H    0.189475
    20  Pd  -0.371841
    21  C   -0.200643
    22  C   -0.436326
    23  C    0.536988
    24  C   -1.474150
    25  C    0.622869
    26  H    0.223195
    27  H    0.235034
    28  C   -0.307090
    29  H    0.247252
    30  H    0.220401
    31  C   -0.121984
    32  C   -0.486638
    33  C    0.023549
    34  H    0.216861
    35  H    0.166899
    36  H    0.244447
    37  C   -0.346673
    38  O   -0.313410
    39  H    0.254919
    40  H    0.216396
    41  H    0.216289
    42  C   -0.338687
    43  H    0.251609
    44  H    0.262503
    45  H    0.255179
    46  O   -0.682882
    47  H    0.551706
    48  H    0.256636
    49  C   -0.525742
    50  H    0.252199
    51  H    0.250498
    52  H    0.232582
    53  H    0.280591
    54  C   -0.222535
    55  H    0.238843
    56  H    0.232086
    57  H    0.227278
    58  C   -0.271816
    59  H    0.223708
    60  H    0.242132
    61  H    0.216646
    62  C   -0.472864
    63  H    0.233874
    64  H    0.188265
    65  H    0.249248
 Sum of Mulliken charges =   1.00000
 Mulliken charges with hydrogens summed into heavy atoms:
               1
     1  C   -0.071544
     2  C   -0.257772
     3  C    0.060856
     4  C    0.063372
     6  C   -0.203967
     7  N    0.183437
    10  Cl   0.443804
    11  C   -0.132587
    12  O   -0.239895
    13  N   -0.040148
    14  C    0.238731
    17  C    0.365149
    18  C   -0.906838
    20  Pd  -0.371841
    21  C    0.298722
    22  C    0.003264
    23  C    0.988311
    24  C   -1.474150
    25  C    0.622869
    28  C    0.417199
    31  C   -0.121984
    32  C   -0.206047
    33  C    0.407309
    37  C   -0.346673
    38  O   -0.313410
    42  C    0.430604
    46  O   -0.131176
    49  C    0.209537
    54  C    0.475673
    58  C    0.410671
    62  C    0.198523
 APT charges:
               1
     1  C    0.125804
     2  C   -0.146851
     3  C    0.181681
     4  C   -0.152447
     5  H    0.089580
     6  C    0.476098
     7  N   -0.449603
     8  H    0.071113
     9  H    0.100103
    10  Cl  -0.233632
    11  C    0.934966
    12  O   -0.807877
    13  N   -0.697781
    14  C    0.333524
    15  H    0.033816
    16  H   -0.006960
    17  C    0.244727
    18  C    0.094142
    19  H   -0.018713
    20  Pd   0.130134
    21  C   -0.043414
    22  C    0.105519
    23  C   -0.057636
    24  C    0.336517
    25  C   -0.408614
    26  H   -0.026953
    27  H   -0.039970
    28  C   -0.049139
    29  H    0.029835
    30  H    0.006516
    31  C    0.335644
    32  C    0.146811
    33  C    0.370332
    34  H   -0.061354
    35  H   -0.044802
    36  H    0.007842
    37  C    1.021406
    38  O   -0.821360
    39  H    0.014814
    40  H   -0.017136
    41  H   -0.000192
    42  C   -0.024066
    43  H    0.027055
    44  H    0.040894
    45  H    0.034900
    46  O   -0.585442
    47  H    0.298327
    48  H    0.001571
    49  C   -0.015836
    50  H    0.033488
    51  H    0.013219
    52  H    0.032970
    53  H    0.030113
    54  C   -0.013780
    55  H    0.009859
    56  H   -0.012904
    57  H    0.006871
    58  C    0.013334
    59  H   -0.000846
    60  H    0.001910
    61  H    0.002701
    62  C    0.008830
    63  H   -0.007281
    64  H   -0.011549
    65  H    0.009173
 Sum of APT charges =   1.00000
 APT charges with hydrogens summed into heavy atoms:
               1
     1  C    0.125804
     2  C   -0.046748
     3  C    0.252794
     4  C   -0.062866
     6  C    0.476098
     7  N   -0.449603
    10  Cl  -0.233632
    11  C    0.934966
    12  O   -0.807877
    13  N   -0.697781
    14  C    0.360379
    17  C    0.226013
    18  C    0.094142
    20  Pd   0.130134
    21  C   -0.020758
    22  C    0.061430
    23  C   -0.097797
    24  C    0.336517
    25  C   -0.408614
    28  C   -0.011216
    31  C    0.335644
    32  C    0.176924
    33  C    0.264175
    37  C    1.021406
    38  O   -0.821360
    42  C    0.078783
    46  O   -0.287114
    49  C    0.063841
    54  C   -0.009954
    58  C    0.017099
    62  C   -0.000827
 Electronic spatial extent (au):  <R**2>=          12987.3585
 Charge=              1.0000 electrons
 Dipole moment (field-independent basis, Debye):
    X=             -6.0019    Y=              0.2001    Z=             -5.5946  Tot=              8.2075
 Quadrupole moment (field-independent basis, Debye-Ang):
   XX=           -171.1291   YY=           -143.9538   ZZ=           -194.8470
   XY=              5.6103   XZ=            -15.1196   YZ=             -3.6335
 Traceless Quadrupole moment (field-independent basis, Debye-Ang):
   XX=             -1.1524   YY=             26.0228   ZZ=            -24.8704
   XY=              5.6103   XZ=            -15.1196   YZ=             -3.6335
 Octapole moment (field-independent basis, Debye-Ang**2):
  XXX=           -160.4300  YYY=             38.5244  ZZZ=             -7.9282  XYY=              6.2694
  XXY=            -14.7425  XXZ=            -78.2685  XZZ=            -38.9619  YZZ=            -31.9785
  YYZ=            -25.0110  XYZ=             19.8672
 Hexadecapole moment (field-independent basis, Debye-Ang**3):
 XXXX=          -9262.2447 YYYY=          -4118.4841 ZZZZ=          -2160.1043 XXXY=             28.7945
 XXXZ=           -361.5126 YYYX=            129.9189 YYYZ=           -191.7897 ZZZX=            -32.0919
 ZZZY=            -21.2788 XXYY=          -2394.4908 XXZZ=          -1997.0113 YYZZ=          -1142.4689
 XXYZ=            -10.4169 YYXZ=              6.8851 ZZXY=             11.0950
 N-N= 3.993141208914D+03 E-N=-1.227334651745D+04  KE= 1.766304865259D+03
  Exact polarizability: 403.252  18.927 353.530  32.213  -5.815 280.432
 Approx polarizability: 562.423  26.679 528.329  88.037 -13.639 453.659
   1 Symmetry operations used in ECPInt.
 ECPInt:  NShTT=   25878 NPrTT=  135610 LenC2=   23008 LenP2D=   71697.
 LDataN:  DoStor=T MaxTD1= 7 Len=  274
 Calling FoFJK, ICntrl=    100127 FMM=F ISym2X=0 I1Cent= 0 IOpClX= 0 NMat=1 NMatS=1 NMatT=0.
 Defaulting to unpruned grid for atomic number  46.
 Defaulting to unpruned grid for atomic number  46.
 Defaulting to unpruned grid for atomic number  46.
 Defaulting to unpruned grid for atomic number  46.
 Defaulting to unpruned grid for atomic number  46.
 Defaulting to unpruned grid for atomic number  46.
 Defaulting to unpruned grid for atomic number  46.
 Defaulting to unpruned grid for atomic number  46.
 Defaulting to unpruned grid for atomic number  46.
 Defaulting to unpruned grid for atomic number  46.
 Defaulting to unpruned grid for atomic number  46.
 Defaulting to unpruned grid for atomic number  46.
 Defaulting to unpruned grid for atomic number  46.
 Defaulting to unpruned grid for atomic number  46.
 Defaulting to unpruned grid for atomic number  46.
 Defaulting to unpruned grid for atomic number  46.
 Defaulting to unpruned grid for atomic number  46.
 Defaulting to unpruned grid for atomic number  46.
 Defaulting to unpruned grid for atomic number  46.
 Defaulting to unpruned grid for atomic number  46.
 Defaulting to unpruned grid for atomic number  46.
 Defaulting to unpruned grid for atomic number  46.
 Defaulting to unpruned grid for atomic number  46.
 Defaulting to unpruned grid for atomic number  46.
 Defaulting to unpruned grid for atomic number  46.
 Defaulting to unpruned grid for atomic number  46.
 Defaulting to unpruned grid for atomic number  46.
 Defaulting to unpruned grid for atomic number  46.
 Full mass-weighted force constant matrix:
 Low frequencies --- -232.0611  -15.1515   -9.3312   -0.0045   -0.0034   -0.0032
 Low frequencies ---    7.1188   16.7426   31.1882
 ******    1 imaginary frequencies (negative Signs) ****** 
 Diagonal vibrational polarizability:
      102.1268125     110.0114693     108.9268093
 Harmonic frequencies (cm**-1), IR intensities (KM/Mole), Raman scattering
 activities (A**4/AMU), depolarization ratios for plane and unpolarized
 incident light, reduced masses (AMU), force constants (mDyne/A),
 and normal coordinates:
                           1         2         3         4         5
                           A         A         A         A         A
       Frequencies ---  -232.0460   11.3094   31.0526   43.9090   56.9422
    Reduced masses ---     7.0966    5.3609    5.7202    4.6302    3.1991
   Force constants ---     0.2251    0.0004    0.0032    0.0053    0.0061
    IR Intensities ---     3.9095    0.3210    0.1492    1.6443    0.1633
 Coord Atom Element:
   1     1     6          0.00171   0.01998   0.03400  -0.02355  -0.00370
   2     1     6         -0.02557  -0.00733  -0.04481   0.00425   0.00747
   3     1     6         -0.00664   0.04049  -0.06778  -0.01255   0.01476
   1     2     6         -0.00327   0.03348   0.10988  -0.09295  -0.01503
   2     2     6         -0.02175  -0.00107  -0.06469   0.04509   0.01235
   3     2     6          0.00285   0.05375  -0.13603   0.11019   0.02905
   1     3     6         -0.00621   0.03238   0.12296  -0.15324  -0.01544
   2     3     6         -0.01802  -0.00897  -0.08647   0.07768   0.01394
   3     3     6          0.00220   0.08126  -0.11091   0.21467   0.02239
   1     4     6         -0.00902   0.01835   0.05125  -0.13684  -0.00434
   2     4     6         -0.02021  -0.02339  -0.07880   0.05724   0.00844
   3     4     6          0.00251   0.09197  -0.01480   0.18293   0.00467
   1     5     1         -0.01449   0.01643   0.04739  -0.18415  -0.00172
   2     5     1         -0.01889  -0.03034  -0.08634   0.07463   0.00695
   3     5     1          0.01369   0.11227   0.01195   0.26533   0.00122
   1     6     6          0.00272   0.00657  -0.02462  -0.05698   0.00544
   2     6     6         -0.02399  -0.02894  -0.05680   0.00985   0.00472
   3     6     6         -0.00062   0.07598   0.05057   0.04369  -0.00632
   1     7     7          0.00795   0.00680  -0.02720  -0.00467   0.00517
   2     7     7         -0.03415  -0.02043  -0.04134  -0.00968   0.00142
   3     7     7         -0.01474   0.05139   0.01989  -0.04618  -0.00137
   1     8     1         -0.00973   0.04286   0.18361  -0.21286  -0.02382
   2     8     1         -0.01653  -0.00421  -0.10276   0.11360   0.01706
   3     8     1          0.00659   0.09316  -0.16248   0.31992   0.03196
   1     9     1         -0.00846   0.04413   0.15693  -0.10593  -0.02426
   2     9     1         -0.02417   0.00887  -0.05926   0.05186   0.01303
   3     9     1          0.00943   0.04287  -0.20285   0.13255   0.04322
   1    10    17         -0.00212  -0.00864  -0.13483  -0.02709   0.02265
   2    10    17          0.00743  -0.04779  -0.05272  -0.02773   0.01285
   3    10    17          0.00696   0.08424   0.17342  -0.00577  -0.02297
   1    11     6         -0.00412   0.01978   0.01289   0.00677  -0.00857
   2    11     6         -0.02026  -0.00229  -0.02314  -0.02066   0.01441
   3    11     6         -0.00185   0.00685  -0.06365  -0.06503   0.01073
   1    12     8         -0.00093   0.04444   0.00821  -0.00076  -0.01751
   2    12     8         -0.00487  -0.00091   0.00098  -0.03264   0.05404
   3    12     8         -0.00159  -0.04326  -0.03423  -0.05977   0.05823
   1    13     7         -0.01437  -0.00359  -0.00247   0.02147  -0.01143
   2    13     7         -0.01867  -0.00105  -0.02127  -0.02320  -0.00495
   3    13     7         -0.00066   0.01285  -0.05833  -0.07191  -0.03765
   1    14     6         -0.01182   0.04559  -0.03105   0.01413  -0.04011
   2    14     6          0.00419  -0.00183   0.02879  -0.04437   0.07412
   3    14     6          0.00000  -0.08524   0.02228  -0.05081   0.04083
   1    15     1         -0.00938   0.03215  -0.00685   0.00542  -0.02190
   2    15     1          0.01317  -0.00357   0.06745  -0.05333   0.08490
   3    15     1         -0.00194  -0.13638   0.06717  -0.07364   0.09811
   1    16     1         -0.01478   0.09937  -0.09603   0.03763  -0.09389
   2    16     1          0.00156  -0.00325   0.01557  -0.06730   0.11953
   3    16     1          0.00075  -0.08454   0.02758  -0.04200   0.02324
   1    17     6         -0.01763  -0.00408  -0.01561   0.01602  -0.02205
   2    17     6         -0.00014   0.00116   0.01833  -0.01005   0.01429
   3    17     6         -0.00069  -0.05162   0.00475  -0.02432  -0.02457
   1    18     6         -0.01058  -0.07371   0.05813   0.05797   0.01009
   2    18     6          0.00255   0.00330   0.06268   0.08120  -0.03726
   3    18     6          0.00191  -0.08259   0.03637  -0.00687  -0.00860
   1    19     1         -0.03201   0.01203  -0.06334  -0.01140  -0.04552
   2    19     1          0.00087  -0.00036   0.01369  -0.02720   0.03189
   3    19     1         -0.00111  -0.04811   0.01892   0.02820  -0.07627
   1    20    46          0.07898  -0.00235  -0.01880   0.01286  -0.00178
   2    20    46         -0.01766  -0.00611  -0.02519  -0.01598  -0.01053
   3    20    46         -0.01254   0.03373  -0.00801  -0.04415  -0.01617
   1    21     6          0.04411  -0.03236  -0.07198   0.01087   0.00511
   2    21     6          0.00179   0.05744   0.14190  -0.02229  -0.02363
   3    21     6          0.00812  -0.15499   0.00044  -0.00128  -0.03197
   1    22     6          0.00792  -0.07694  -0.03776   0.02960  -0.00689
   2    22     6          0.03827   0.02500   0.10500  -0.04817  -0.04955
   3    22     6          0.01727  -0.12038  -0.00382  -0.00155  -0.01677
   1    23     6          0.01402  -0.07070  -0.04157   0.02741  -0.00500
   2    23     6          0.17213   0.00465   0.03428  -0.05001  -0.02724
   3    23     6          0.02094  -0.04934  -0.01056  -0.02305  -0.00944
   1    24     6          0.00096  -0.00412  -0.01432   0.01466  -0.00451
   2    24     6          0.41759   0.01507   0.00937  -0.03260   0.00842
   3    24     6          0.12339  -0.01575  -0.01277  -0.01835   0.01094
   1    25     6          0.02727   0.05291  -0.00457   0.00169  -0.00467
   2    25     6          0.07956   0.03006   0.02651  -0.01362   0.03336
   3    25     6          0.02588  -0.05120  -0.01641  -0.00729   0.01358
   1    26     1          0.04926  -0.12516  -0.06206   0.03887  -0.00447
   2    26     1         -0.00081   0.01817   0.11770  -0.06300  -0.07433
   3    26     1          0.00498  -0.14436  -0.00408  -0.00868  -0.03392
   1    27     1          0.07197  -0.07794  -0.08725   0.02079   0.00787
   2    27     1          0.20425   0.00271   0.02185  -0.05035  -0.02160
   3    27     1         -0.15786  -0.04718  -0.01154  -0.04189  -0.03126
   1    28     6         -0.12621   0.01538   0.00038  -0.02183   0.07343
   2    28     6         -0.06981  -0.05475  -0.02763  -0.07807  -0.04064
   3    28     6         -0.04428   0.05136  -0.00788   0.03612  -0.03194
   1    29     1         -0.06481   0.03856  -0.02837  -0.05803   0.13559
   2    29     1         -0.08766  -0.09485  -0.00455  -0.06929  -0.09172
   3    29     1         -0.01622   0.02679  -0.00540   0.01822  -0.03886
   1    30     1         -0.09883   0.02204  -0.00825  -0.03072   0.08670
   2    30     1          0.02882  -0.02679  -0.06192  -0.11442   0.01826
   3    30     1         -0.03217   0.03165   0.00599   0.05003  -0.07775
   1    31     6         -0.11951   0.00673   0.01177   0.00258   0.02098
   2    31     6         -0.18037  -0.01560  -0.01964  -0.03590  -0.02513
   3    31     6         -0.05896   0.05542  -0.01293   0.02643  -0.00906
   1    32     6         -0.23130   0.00557   0.01620   0.00637   0.01087
   2    32     6         -0.27758  -0.01035   0.00789  -0.02965  -0.02969
   3    32     6         -0.06737   0.06170  -0.01963   0.00137   0.05285
   1    33     6         -0.14869   0.00786   0.02587   0.02006  -0.02143
   2    33     6         -0.00168   0.01260  -0.03130  -0.01033  -0.00177
   3    33     6          0.03407   0.07737  -0.00953   0.06048  -0.02899
   1    34     1         -0.29380   0.07078   0.02603   0.00922   0.00944
   2    34     1         -0.00354  -0.01913  -0.02941  -0.01816  -0.01517
   3    34     1          0.08080   0.15093  -0.01464   0.08533   0.00087
   1    35     1         -0.09416  -0.01246   0.02389   0.02173  -0.02547
   2    35     1          0.11741  -0.03561  -0.03399  -0.00623  -0.01193
   3    35     1          0.09806   0.01169   0.00239   0.06994  -0.09560
   1    36     1          0.07388  -0.08399  -0.16546   0.00675   0.03109
   2    36     1          0.00224   0.05137   0.12924  -0.02019  -0.01627
   3    36     1          0.03237  -0.15049   0.01508  -0.02328  -0.06661
   1    37     6          0.05624   0.05653  -0.02391  -0.00575  -0.00549
   2    37     6         -0.01463   0.02887   0.07303   0.00215   0.03532
   3    37     6          0.00863  -0.12944  -0.01415   0.00361  -0.00528
   1    38     8          0.05312   0.12884  -0.00810  -0.02726  -0.01346
   2    38     8         -0.01318   0.00419   0.05536   0.03939   0.08958
   3    38     8          0.00930  -0.17265  -0.02380   0.01656  -0.00052
   1    39     1          0.03964  -0.02433  -0.05844   0.01127   0.00146
   2    39     1         -0.02570   0.11144   0.23178  -0.01991  -0.04808
   3    39     1         -0.02115  -0.20742  -0.00129   0.01734  -0.02843
   1    40     1         -0.07614  -0.07014   0.01410   0.03558  -0.02159
   2    40     1          0.01152   0.02599   0.11765  -0.05183  -0.05874
   3    40     1          0.03217  -0.11693   0.00385   0.02193   0.00678
   1    41     1         -0.02889  -0.11267  -0.02108   0.04150  -0.01824
   2    41     1          0.04500  -0.01234   0.01419  -0.06750  -0.04310
   3    41     1          0.09146  -0.01990  -0.01350  -0.02378   0.00389
   1    42     6         -0.01199   0.12230   0.02642  -0.01007  -0.00735
   2    42     6          0.06882   0.03243  -0.01017   0.00265   0.07184
   3    42     6          0.01481  -0.02603  -0.02435  -0.00326   0.03242
   1    43     1         -0.06073   0.11946   0.04086  -0.01165  -0.00787
   2    43     1          0.01699   0.01374  -0.01028   0.00639   0.08042
   3    43     1         -0.02832  -0.07579  -0.05945   0.01289   0.05994
   1    44     1          0.02211   0.19337   0.03539  -0.01723  -0.01161
   2    44     1          0.02799   0.02287  -0.03156   0.01242   0.09666
   3    44     1          0.04686  -0.02585  -0.00690  -0.01125   0.01097
   1    45     1         -0.02847   0.11103   0.02984  -0.00892  -0.00704
   2    45     1          0.11485   0.05963  -0.02079   0.00059   0.06932
   3    45     1         -0.00415   0.03922  -0.01431  -0.00879   0.04027
   1    46     8         -0.03488  -0.03493   0.03801   0.04353  -0.08281
   2    46     8         -0.01832   0.13498  -0.03607   0.01533   0.04572
   3    46     8         -0.01605   0.09429  -0.01482   0.04908  -0.00169
   1    47     1         -0.06415  -0.01656   0.05365   0.05777  -0.12765
   2    47     1          0.06994   0.14589  -0.04997   0.02384   0.08523
   3    47     1          0.04980   0.11986  -0.01663   0.06872   0.00325
   1    48     1         -0.21599  -0.00720   0.02909   0.00576   0.03570
   2    48     1         -0.05622  -0.07437  -0.02144  -0.08261  -0.05997
   3    48     1         -0.08139   0.09037  -0.01733   0.04964   0.00451
[...]
 0015601,-0.00002656,-0.00001412,0.00000379,-0.00000034,-0.00000076,-0.
 00000320,0.00000670,-0.00000595,0.00001695,-0.00000165,0.00000744,-0.0
 0005005,-0.00006227,-0.00003186,0.00004586,0.00002877,0.00000190,0.000
 00410,0.00000198,-0.00000222,0.00000296,0.00000464,0.00000077,0.000043
 79,0.00005937,-0.00000187,0.00001423,0.00000262,-0.00002493,-0.0000001
 7,-0.00002604,0.00002121,0.00010512,-0.00037403,0.00012780,0.00005310,
 0.00009704,-0.00009140,-0.00053846,0.00020242,-0.00054803,0.00020189,-
 0.00006731,-0.00005659,0.00039070,-0.00017526,0.00025119,-0.00000094,0
 .00000140,-0.00000019,-0.00006029,-0.00001171,-0.00000700,0.00003157,0
 .00000427,0.00002004,0.00000216,0.00000016,-0.00000054,-0.00000285,-0.
 00000029,0.00000132,0.00000094,-0.00000397,0.00000209,-0.00000252,-0.0
 0000201,0.00000691,0.00000006,-0.00000210,-0.00000227,0.00000217,0.000
 00607,-0.00000070,-0.00000290,-0.00001184,-0.00001178,0.00019454,-0.00
 006883,0.00018021,-0.00008155,0.00012469,-0.00021552,-0.00000021,0.000
 00605,0.00001630,0.00001339,0.00001079,0.00001364,0.00001124,-0.000004
 55,-0.00000527,-0.00000432,-0.00000113,0.00000221,-0.00000047,0.000000
 70,-0.00000538,-0.00003063,-0.00000401,0.00000208,-0.00067235,0.000705
 80,0.00117109,0.00058348,-0.00055500,0.00009509,-0.00019304,-0.0000618
 3,0.00000041,-0.00012473,0.00023171,-0.00024202,-0.00079023,0.00000975
 ,-0.00056375,0.00003929,0.00001002,-0.00012904,0.00005699,0.00043147,-
 0.00019222,-0.00013878,-0.00014155,-0.00005102,0.00658948,-0.04622476,
 -0.01857644,-0.00969275,0.04948267,-0.00003846,-0.00003948,-0.00000362
 ,0.00005945,0.00006050,0.00001012,-0.00003998,-0.00002540,-0.00001406,
 0.00004847,-0.00002911,0.00004017,-0.00000033,-0.00000134,0.00000082,-
 0.00004294,0.00007703,-0.00007780,0.00003425,0.00001995,0.00002181,0.0
 0000440,0.00000427,-0.00000124,-0.00000136,-0.00002431,0.00000050,0.00
 004185,-0.00001562,0.00003664,-0.00007211,-0.00023961,0.00003120,0.000
 16483,0.00046957,-0.00005224,-0.00001383,-0.00006430,0.00035623,0.0008
 1963,-0.00075423,-0.00084800,-0.00005526,0.00002706,0.00006570,-0.0001
 6551,0.00028396,-0.00024681,-0.00355741,0.00297057,-0.00127847,0.00811
 174,-0.00154940,-0.01989115,-0.00006694,-0.00008529,0.00037529,-0.0000
 9120,0.00003088,-0.00006275,0.00000195,-0.00000045,0.00000132,-0.00000
 698,0.00000848,-0.00000894,0.00002840,-0.00000786,0.00001671,-0.000065
 47,-0.00001484,0.00000343,0.00009055,0.00004375,-0.00003336,0.00000494
 ,0.00000152,-0.00000215,-0.00000260,-0.00000193,0.00000298,-0.00003604
 ,0.00000480,-0.00000583,0.00000283,0.00000227,0.00000098,0.00001669,0.
 00001329,0.00001982,-0.00001591,-0.00003263,0.00002908,-0.00000412,0.0
 0005825,0.00000341,-0.00036815,0.00015011,-0.00015483,0.00005979,-0.00
 002307,-0.00000283,0.00016871,-0.00005622,-0.00001042,-0.00000322,0.00
 000086,-0.00000074,-0.00009545,-0.00003117,-0.00002134,0.00005173,0.00
 000684,0.00004927,0.00000345,-0.00000051,0.00000025,0.00000069,-0.0000
 0276,0.00000099,-0.00000398,0.00000055,0.00000373,0.00000422,0.0000001
 5,0.00000992,-0.00000130,-0.00000437,0.00000171,0.00000373,0.00000516,
 0.00000154,0.00000184,-0.00000536,-0.00001100,0.00007083,-0.00002180,0
 .00018829,0.00001837,0.00002923,-0.00009099,0.00001405,-0.00000869,0.0
 0000247,0.00000620,0.00000091,0.00000528,0.00000647,0.00000137,-0.0000
 0001,-0.00000178,-0.00000039,-0.00000246,-0.00000258,0.00000011,0.0000
 0160,0.00000340,-0.00000444,-0.00000420,0.00078887,-0.00151843,0.00086
 773,-0.00017640,0.00064627,0.00058980,-0.00004791,0.00010928,-0.000069
 71,-0.00019788,-0.00021095,0.00036521,0.00135103,-0.00034764,0.0006230
 6,-0.00003484,0.00007817,-0.00005946,-0.00081013,-0.00010277,0.0001259
 6,-0.00009172,0.00003461,0.00042445,0.09571985,-0.01742019,-0.27224576
 ,-0.10273910,0.01690246,0.29464852,0.00001626,0.00003526,0.00000994,-0
 .00001243,-0.00001260,-0.00001641,0.00000997,0.00000421,0.00000279,0.0
 0000044,0.00000829,-0.00001451,0.00000221,0.00000039,-0.00000406,-0.00
 001202,-0.00000312,-0.00001467,-0.00004008,0.00008567,0.00006357,-0.00
 000145,-0.00000046,0.00000090,-0.00000033,0.00000260,0.00000216,-0.000
 00400,-0.00000050,0.00000962,-0.00013882,0.00014707,-0.00007611,0.0000
 6578,-0.00011662,-0.00003440,-0.00021906,-0.00004382,0.00038004,-0.000
 07192,-0.00001675,0.00009861,0.00001258,0.00005806,0.00001440,0.000019
 85,-0.00000729,0.00000717,0.00035192,-0.00051248,0.00048150,-0.0008591
 9,0.01550248,0.00583799,0.00014740,-0.00019082,-0.00018823,0.00015483,
 -0.00004104,-0.00007508,0.00000697,-0.00000233,-0.00000245,-0.00000768
 ,0.00001271,-0.00001303,0.00003941,-0.00001162,0.00001211,-0.00011107,
 -0.00007165,-0.00003545,0.00011120,0.00004433,-0.00000056,0.00000861,0
 .00000251,-0.00000439,0.00000410,0.00001010,-0.00000137,0.00008480,0.0
 0009463,-0.00001125,0.00000670,0.00000527,-0.00004743,-0.00000522,-0.0
 0001264,0.00002918,-0.00001443,-0.00044230,0.00008292,0.00005465,0.000
 09017,-0.00008413,-0.00098607,0.00066723,0.00106318,0.00017845,-0.0000
 7147,-0.00012673,-0.00061710,0.00051664,0.00149745,-0.00000044,0.00000
 528,-0.00000226,-0.00011433,-0.00003819,-0.00002313,0.00006152,0.00002
 157,0.00004687,0.00000405,0.00000108,-0.00000075,-0.00000515,0.0000008
 6,0.00000336,-0.00000021,-0.00000504,0.00000466,-0.00002549,0.00000792
 ,0.00000354,-0.00001387,-0.00000022,0.00000359,0.00002948,0.00001298,0
 .00000824,-0.00001901,-0.00005441,-0.00002861,0.00041618,-0.00036785,-
 0.00038827,-0.00053899,0.00064007,-0.00011776,0.00001078,0.00000446,0.
 00001745,0.00000333,0.00002557,0.00001048,0.00001561,-0.00000806,-0.00
 000634,-0.00000391,0.00000053,0.00000680,0.,0.00000022,-0.00001310,-0.
 00008017,-0.00000582,0.00001831,-0.00194762,0.00197541,-0.00264625,0.0
 0001589,-0.00028653,-0.00022277,0.00017963,0.00016297,-0.00001410,0.00
 033852,0.00121596,0.00017413,0.00100489,0.00105386,0.00073642,-0.00037
 237,-0.00005719,-0.00063502,-0.00007933,0.00003270,0.00022041,0.000195
 34,-0.00026789,0.00016066,-0.04634003,-0.01563408,-0.00495337,0.000249
 33,0.01216252,0.00272944,0.04795526,0.00005693,0.00001588,-0.00002772,
 -0.00003387,-0.00001268,-0.00000997,0.00003208,0.00003345,0.00001508,-
 0.00001979,0.00003973,-0.00004149,0.00000521,0.00000149,-0.00000850,0.
 00003348,-0.00006511,0.00003254,-0.00006703,0.00012279,0.00008396,0.00
 000140,-0.00000062,-0.00000380,0.00001025,0.00001051,-0.00002123,-0.00
 004114,0.00001491,-0.00002099,0.00015387,0.00010334,-0.00010952,-0.000
 00867,0.00025663,-0.00005391,-0.00026644,0.00002554,0.00041357,0.00010
 008,0.00009703,0.00026613,-0.00007852,0.00001662,-0.00013169,-0.000008
 69,-0.00004816,0.00009269,-0.00008447,-0.00027812,-0.00167400,-0.00134
 683,-0.01855117,-0.00701133,-0.00017106,0.00058138,0.00095866,0.000238
 29,-0.00007900,-0.00000093,0.00000834,-0.00000561,-0.00000476,-0.00000
 575,0.00001437,-0.00001239,0.00004005,-0.00002054,0.00000909,-0.000121
 17,-0.00011253,-0.00006269,0.00010100,0.00005607,0.00001130,0.00000944
 ,0.00000192,-0.00000477,0.00000686,0.00001742,-0.00000260,0.00008527,0
 .00014960,-0.00002221,0.00002781,0.00000257,-0.00005312,0.00000676,-0.
 00005116,0.00003973,0.00008575,-0.00062199,0.00019357,0.00011068,0.000
 12738,-0.00013713,0.00037201,0.00009341,-0.00067617,0.00027902,-0.0001
 3217,-0.00010666,0.00085627,-0.00005582,0.00000164,0.00000156,0.000008
 41,-0.00000291,-0.00010996,-0.00003886,-0.00001914,0.00005401,0.000027
 66,0.00004199,0.00000356,0.00000185,-0.00000049,-0.00000792,0.00000409
 ,0.00000353,0.00000266,-0.00000607,0.00000695,-0.00002229,-0.00000317,
 -0.00000051,-0.00001514,-0.00000053,0.00000376,0.00002172,0.00000900,0
 .00000861,-0.00001463,-0.00004576,-0.00002149,0.00025375,-0.00012026,-
 0.00056762,-0.00042653,0.00048237,-0.00008803,0.00000070,0.00001209,0.
 00003731,0.00001311,0.00003408,0.00002034,0.00001966,-0.00001271,-0.00
 000642,-0.00000833,0.00000078,0.00000974,-0.00000448,-0.00000130,-0.00
 001316,-0.00006868,-0.00000452,0.00000118,0.00293031,-0.00140506,0.004
 34603,-0.00010762,0.00035727,0.00000517,-0.00013996,0.00036014,-0.0000
 0113,0.00019671,-0.00132858,-0.00045158,-0.00177769,0.00076295,-0.0007
 8178,0.00051636,0.00065426,0.00027474,0.00014255,-0.00012410,0.0000149
 9,-0.00004506,0.00036655,0.00017353,-0.01450804,-0.28491989,-0.0690495
 6,-0.00044166,-0.00119485,0.00026232,0.01181807,0.31108743,0.00000628,
 0.00001447,0.00001656,-0.00001533,-0.00002193,-0.00000981,0.00000919,0
 .00000885,0.00000137,-0.00000784,0.00000376,-0.00001005,0.00000032,0.0
 0000063,-0.00000064,0.00001916,-0.00000983,0.00001222,-0.00002311,-0.0
 0000910,0.00002317,-0.00000138,-0.00000118,-0.00000003,-0.00000051,0.0
 0000618,0.00000092,-0.00000977,0.00000095,-0.00000466,-0.00007321,0.00
 011763,0.00000162,0.00001456,-0.00025108,0.00005115,0.00002675,-0.0002
 3514,-0.00003587,-0.00019291,-0.00001930,0.00017047,0.00003297,0.00001
 331,0.00002949,0.00002161,-0.00002279,0.00001745,0.00023848,0.00083848
 ,0.00127076,0.00128790,0.01947402,0.00518935,0.00006572,-0.00012290,-0
 .00034064,0.00005365,0.00005093,-0.00000186,-0.00000007,-0.00000252,-0
 .00000138,0.00000460,-0.00000598,0.00000436,-0.00001936,0.00000379,-0.
 00000732,0.00003513,-0.00001496,0.00000179,-0.00004963,-0.00000852,0.0
 0001759,-0.00000301,-0.00000088,0.00000132,0.00000120,0.00000379,-0.00
 000192,0.00003609,0.00000076,-0.00000976,-0.00000995,0.00000246,-0.000
 00543,-0.00001212,-0.00000278,-0.00002284,-0.00002593,0.00000616,-0.00
 001876,0.00002422,-0.00003865,0.00000794,0.00124707,-0.00054111,0.0000
 4379,-0.00006939,0.00000122,-0.00000935,0.00175383,-0.00071457,-0.0015
 0277,0.00000179,0.00000163,-0.00000017,0.00005006,0.00001577,0.0000101
 9,-0.00002845,0.00000034,-0.00002274,-0.00000143,0.00000043,-0.0000001
 9,-0.00000047,0.00000245,-0.00000031,0.00000257,-0.00000002,-0.0000028
 4,-0.00000511,0.00000144,-0.00000707,-0.00000806,0.00000267,0.00000216
 ,0.00000962,0.,0.00000195,-0.00000136,-0.00001458,0.00000084,-0.000310
 05,0.00013331,-0.00079462,-0.00047873,0.00024949,0.00022533,-0.0000073
 8,0.00000298,0.00000509,-0.00001357,0.00000750,-0.00000689,-0.00000424
 ,-0.00000291,0.00000206,0.00000003,-0.00000057,0.00000497,0.00000119,-
 0.00000040,-0.00000404,-0.00001601,0.00000525,-0.00000216,-0.00196682,
 0.00179896,-0.00232888,-0.00030232,0.00012489,0.00024360,0.00004060,-0
 .00007313,-0.00023262,-0.00028429,0.00104966,0.00071679,0.00079361,0.0
 0023974,0.00080941,-0.00024872,-0.00013854,0.00002882,-0.00000664,-0.0
 0022221,-0.00008199,0.00033909,0.00002935,-0.00003153,-0.00452927,-0.0
 6965559,-0.06575452,-0.00278337,-0.02779018,-0.00659459,0.00489921,0.0
 7575567,0.07020929,0.00001428,0.00006075,0.00004088,-0.00001312,-0.000
 00541,-0.00001080,0.00000895,0.00001026,-0.00000735,0.00000021,0.00000
 430,0.00000353,0.00000123,0.00000319,-0.00000266,-0.00001975,-0.000008
 83,-0.00003269,0.00004248,0.00002691,-0.00004284,-0.00000140,-0.000001
 05,0.00000010,-0.00000324,0.00000299,-0.00000013,0.00000798,-0.0000058
 5,0.00001008,0.00000941,0.00059428,-0.00007027,0.00070827,-0.00028238,
 0.00007432,0.00044729,-0.00088478,0.00187929,-0.00029232,-0.00021979,-
 0.00007813,0.00002021,-0.00009428,0.00006741,0.00000128,0.00003757,-0.
 00004085,-0.00093516,-0.00025280,0.00044078,-0.01404932,-0.00502553,-0
 .00001129,0.00004614,0.00002577,0.00004921,-0.00009167,-0.00010491,0.0
 0026454,0.00000018,-0.00000322,0.00000024,-0.00000064,0.00000123,-0.00
 000178,0.00000730,-0.00000167,-0.00000792,-0.00004490,0.00004217,-0.00
 009570,0.00000270,-0.00003790,0.00002930,0.00000059,-0.00000156,0.0000
 0104,-0.00000222,-0.00000091,0.00000138,-0.00002149,0.00000462,-0.0000
 1228,0.00000344,-0.00000473,0.00000829,0.00000107,-0.00000576,-0.00000
 830,0.00004276,-0.00002981,0.00008282,0.00006275,0.00001267,-0.0000367
 7,-0.00042164,0.00015051,-0.00051097,0.00000585,0.00000205,-0.00005488
 ,0.00007898,-0.00042281,-0.00016000,0.00000164,0.00000148,0.00000011,0
 .00001967,0.00002127,-0.00001231,-0.00001483,-0.00000272,-0.00000227,-
 0.00000012,0.00000136,0.00000018,-0.00000053,0.00000191,0.00000010,0.0
 0000181,0.00000130,0.00000186,-0.00003286,-0.00006243,-0.00001995,0.00
 002168,0.00001503,-0.00000449,0.00000404,0.00000203,-0.00000004,0.0001
 2101,0.00001989,-0.00008459,-0.00140894,0.00103677,0.00101367,0.000045
 81,-0.00014620,-0.00005920,0.00000127,0.00000282,0.00000259,0.00000806
 ,-0.00000663,-0.00000498,-0.00000029,-0.00000007,0.00000147,0.00000284
 ,0.00000064,-0.00000406,-0.00000135,-0.00000161,0.00000316,0.00001836,
 -0.00000007,0.00000961,0.00041821,-0.00107902,0.00022782,-0.00011119,0
 .00001525,-0.00006334,0.00015579,0.00068053,0.00003377,0.00027227,0.00
 012365,0.00000004,-0.00104335,0.00316864,-0.00259155,0.00016347,-0.000
 11282,0.00003052,0.00044057,0.00004788,0.00000932,-0.00087688,-0.00045
 081,-0.00022141,-0.29359170,-0.07050671,-0.01151814,-0.00955009,-0.003
 04837,-0.00158178,0.00088586,0.00135583,0.00049332,0.31843327,0.000009
 03,-0.00005705,0.00005200,0.00001880,0.00002343,0.00002196,-0.00002118
 ,-0.00001838,-0.00001291,0.00001205,-0.00001574,0.00004558,-0.00000425
 ,0.00000330,0.00000446,-0.00009301,0.00001474,-0.00006131,0.00013980,-
 0.00003100,-0.00022760,0.00000186,0.00000064,0.00000065,-0.00000178,-0
 .00000576,0.00000518,0.00004605,-0.00001245,0.00001564,0.00010590,-0.0
 0012554,0.00021599,-0.00002398,-0.00002823,0.00002404,0.00000318,-0.00
 031503,0.00098276,0.00011404,-0.00010546,-0.00018706,0.00003134,0.0000
 2491,-0.00001024,-0.00001449,0.00003514,-0.00004609,-0.00058786,0.0006
 7272,-0.00041284,0.01806135,0.00503737,-0.00108183,-0.00009211,-0.0000
 0707,0.00004725,-0.00040575,-0.00003031,0.00024654,-0.00001542,0.00000
 296,0.00000521,0.00000816,-0.00001511,0.00000779,-0.00003731,0.0000213
 6,-0.00000133,0.00005825,0.00006450,0.00002695,-0.00006635,-0.00003735
 ,-0.00004593,-0.00000864,-0.00000267,0.00000575,-0.00000451,-0.0000138
 8,0.00000777,-0.00007685,-0.00004816,0.00001175,-0.00000275,-0.0000000
 4,0.00003533,0.00001164,0.00000583,-0.00001577,0.00013261,0.00026566,0
 .00003344,-0.00001045,-0.00003376,0.00000852,-0.00023453,-0.00030885,-
 0.00130560,-0.00006149,0.00008627,0.00021918,-0.00037736,-0.00012712,-
 0.00012231,-0.00000144,-0.00000773,0.00000421,0.00009341,0.00003807,0.
 00001708,-0.00005460,-0.00003230,-0.00002226,-0.00000389,-0.00000287,0
 .00000167,0.00000491,-0.00000093,-0.00000359,-0.00000074,0.00000145,-0
 .00000373,0.00005911,0.00001670,0.00003163,-0.00000394,-0.00000810,0.,
 -0.00001974,0.00000203,-0.00000617,0.00007233,0.00002714,-0.00001885,0
 .00012512,0.00054702,0.00131420,0.00012949,-0.00071555,-0.00009490,0.0
 0000068,-0.00000199,-0.00000374,0.00001720,-0.00000977,0.00000582,-0.0
 0000876,0.00000423,0.00000193,-0.00000065,0.,-0.00000234,-0.00000227,-
 0.00000198,0.00001372,0.00007161,-0.00000176,-0.00002359,0.00046072,0.
 00155663,-0.00023856,0.00005873,-0.00003736,-0.00004043,0.00001032,-0.
 00053902,0.00003239,-0.00028749,0.00013975,-0.00002456,0.00139030,-0.0
 0206884,0.00214537,0.00013065,0.00024051,0.00027873,-0.00007602,-0.000
 25562,-0.00001949,0.00099216,0.00068610,0.00041195,-0.07031558,-0.0686
 3318,-0.00327577,0.00335533,-0.00013559,0.00034003,-0.02814687,-0.0067
 1061,-0.00004754,0.07533592,0.07098373,0.00000375,0.00009016,0.0000177
 3,-0.00005563,-0.00006079,-0.00002350,0.00004134,0.00002482,0.00001910
 ,-0.00006409,0.00002455,-0.00005435,0.00000006,-0.00000316,0.00000155,
 0.00012401,-0.00008850,0.00015668,-0.00004261,-0.00005929,-0.00001957,
 -0.00000658,-0.00000409,0.00000068,-0.00000320,0.00001507,0.00000436,-
 0.00006596,0.00002647,-0.00006505,-0.00022927,0.00087143,-0.00032428,0
 .00070189,-0.00031831,0.00016168,0.00015802,0.00046244,-0.00124121,-0.
 00024842,-0.00003914,0.00024177,0.00001322,-0.00009089,0.00007430,0.00
 004302,-0.00001803,0.00004001,-0.00091838,-0.00093204,0.00037925,-0.01
 946598,-0.00708984,-0.00165768,0.00004180,0.00000923,-0.00003143,0.000
 47939,0.00025118,-0.00073170,0.00000264,0.00000118,-0.00000386,0.00001
 729,-0.00003191,0.00003179,-0.00014329,0.00003176,-0.00004699,0.000293
 29,-0.00012588,0.00010535,-0.00023391,-0.00010117,0.00009026,-0.000019
 23,-0.00000021,0.00000497,0.00000609,0.00000649,-0.00000906,-0.0000179
 0,0.00001709,-0.00001052,0.00000382,-0.00000576,0.00000192,-0.00000357
 ,-0.00001796,-0.00002028,0.00008720,-0.00000391,-0.00009084,0.00010369
 ,-0.00012016,0.00001306,0.00025569,-0.00040187,-0.00009828,-0.00010994
 ,0.00007826,-0.00001494,-0.00049518,-0.00038205,-0.00041713,0.00000335
 ,-0.00000340,0.00000292,0.00023362,0.00011037,0.00007174,-0.00011249,-
 0.00002704,-0.00013529,-0.00000646,0.00000014,-0.00000295,-0.00000192,
 0.00000378,-0.00000208,0.00000872,0.00000018,-0.00001735,-0.00000817,-
 0.00002639,-0.00005408,0.00001555,0.00001029,-0.00001506,-0.00004112,-
 0.00001959,-0.00001565,0.00006049,0.00000220,0.00007872,0.00012762,0.0
 0055205,-0.00045251,-0.00004137,0.00013587,0.00021083,0.00000030,0.000
 01209,0.00001069,-0.00000331,0.00001089,-0.00000975,-0.00001367,-0.000
 00358,0.00000589,-0.00000649,0.00000109,0.00000559,0.00000159,-0.00000
 455,-0.00000116,0.00000327,0.00000831,0.00001210,0.00069683,-0.0008819
 6,0.00021389,0.00011227,0.00010293,-0.00001088,0.00005827,0.00021638,0
 .00047521,0.00007343,-0.00010885,-0.00015791,-0.00161947,0.00314425,-0
 .00268714,0.00030952,0.00012378,0.00000389,-0.00015635,0.00004553,0.00
 024160,-0.00144583,-0.00019273,0.00015854,-0.00991192,-0.00276729,-0.0
 4717241,0.02767282,0.00868866,0.00286881,-0.00883510,-0.00188240,-0.00
 127358,0.01257295,0.00073383,0.05116363\\-0.00000196,-0.00000106,-0.00
 000465,-0.00000090,-0.00000176,-0.00000528,-0.00000214,-0.00000110,-0.
 00000517,-0.00000360,0.00000176,-0.00000333,-0.00000410,0.00000184,-0.
 00000310,-0.00000304,0.00000096,-0.00000152,-0.00000112,0.00000061,-0.
 00000140,-0.00000260,-0.00000104,-0.00000625,-0.00000081,-0.00000313,-
 0.00000724,-0.00000497,0.00000450,0.00000111,0.00000045,-0.00000128,-0
 .00000417,0.00000025,-0.00000389,-0.00000658,0.00000035,-0.00000119,-0
 .00000131,0.00000102,-0.00000340,-0.00000670,0.00000066,-0.00000464,-0
 .00000831,0.00000296,-0.00000535,-0.00000641,0.00000031,-0.00000326,-0
 .00000580,-0.00000144,-0.00000129,-0.00000522,0.00000163,-0.00000317,-
 0.00000305,0.00000189,-0.00000091,0.00000092,-0.00000094,0.00000269,0.
 00000615,0.00000278,0.00000183,0.00000647,0.00000220,0.00000182,0.0000
 0482,-0.00000048,0.00000426,0.00000304,-0.00000214,0.00000121,0.000005
 75,0.00000260,0.00000075,0.00000629,0.00000102,-0.00000010,0.00000218,
 0.00000496,-0.00000273,0.00000199,0.00000496,-0.00000286,0.00000170,0.
 00000406,-0.00000385,-0.00000009,0.00000289,0.00000036,0.00000279,0.00
 000176,-0.00000236,0.00000462,0.00000113,0.00000046,0.00000233,0.00000
 297,-0.00000066,0.00000346,0.00000186,-0.00000044,0.00000009,-0.000001
 15,0.00000313,0.00000577,0.00000096,0.00000287,0.00000580,-0.00000342,
 0.00000629,0.00000747,0.,0.00000366,0.00000856,0.00000341,0.00000178,0
 .00000753,0.00000283,-0.00000202,0.00000349,-0.00000172,0.00000424,0.0
 0000541,-0.00000240,0.00000574,0.00000683,-0.00000420,0.00000585,0.000
 00454,-0.00000231,0.00000405,0.00000529,0.00000017,0.00000043,0.000002
 90,-0.00000072,0.00000230,0.00000295,0.00000627,-0.00000338,0.00000272
 ,0.00000461,0.00000149,0.00000643,0.00000428,0.00000143,0.00000787,0.0
 0000621,-0.00000090,0.00000786,0.00000499,-0.00000226,0.00000542,0.000
 00099,0.00000079,0.00000376,-0.00000327,-0.00000133,-0.00000652,-0.000
 00506,0.00000028,-0.00000787,-0.00000400,0.00000008,-0.00000624,-0.000
 00327,-0.00000141,-0.00000900,-0.00000183,-0.00000257,-0.00000721,0.00
 000017,-0.00000255,-0.00000563,-0.00000236,-0.00000156,-0.00000729,-0.
 00000055,-0.00000354,-0.00000841,-0.00000199,0.,-0.00000388,-0.0000041
 3,0.00000148,-0.00000342,-0.00000220,0.00000044,-0.00000161,-0.0000028
 2,0.00000159,-0.00000165\\\@


 A people that values its privileges above its principles soon loses both.
 -- Dwight D. Eisenhower
 Job cpu time:       2 days 23 hours 23 minutes 28.5 seconds.
 File lengths (MBytes):  RWF=   7488 Int=      0 D2E=      0 Chk=     25 Scr=      1
 Normal termination of Gaussian 09 at Fri Feb  2 17:39:05 2018.
