 Entering Gaussian System, Link 0=g09
 Initial command:
 /sw/group/lms/sw/g09_D01/g09/l1.exe "/work/job.575576/Gau-40126.inp" -scrdir="/work/job.575576/"
 Default is to use a total of  28 processors:
                               28 via shared-memory
                                1 via Linda
 Entering Link 1 = /sw/group/lms/sw/g09_D01/g09/l1.exe PID=     40127.
  
 Copyright (c) 1988,1990,1992,1993,1995,1998,2003,2009,2013,
            Gaussian, Inc.  All Rights Reserved.
  
 This is part of the Gaussian(R) 09 program.  It is based on
 the Gaussian(R) 03 system (copyright 2003, Gaussian, Inc.),
 the Gaussian(R) 98 system (copyright 1998, Gaussian, Inc.),
 the Gaussian(R) 94 system (copyright 1995, Gaussian, Inc.),
 the Gaussian 92(TM) system (copyright 1992, Gaussian, Inc.),
 the Gaussian 90(TM) system (copyright 1990, Gaussian, Inc.),
 the Gaussian 88(TM) system (copyright 1988, Gaussian, Inc.),
 the Gaussian 86(TM) system (copyright 1986, Carnegie Mellon
 University), and the Gaussian 82(TM) system (copyright 1983,
 Carnegie Mellon University). Gaussian is a federally registered
 trademark of Gaussian, Inc.
  
 This software contains proprietary and confidential information,
 including trade secrets, belonging to Gaussian, Inc.
  
 This software is provided under written license and may be
 used, copied, transmitted, or stored only in accord with that
 written license.
  
 The following legend is applicable only to US Government
 contracts under FAR:
  
                    RESTRICTED RIGHTS LEGEND
  
 Use, reproduction and disclosure by the US Government is
 subject to restrictions as set forth in subparagraphs (a)
 and (c) of the Commercial Computer Software - Restricted
 Rights clause in FAR 52.227-19.
  
 Gaussian, Inc.
 340 Quinnipiac St., Bldg. 40, Wallingford CT 06492
  
  
 ---------------------------------------------------------------
 Warning -- This program may not be used in any manner that
 competes with the business of Gaussian, Inc. or will provide
 assistance to any competitor of Gaussian, Inc.  The licensee
 of this program is prohibited from giving any competitor of
 Gaussian, Inc. access to this program.  By using this program,
 the user acknowledges that Gaussian, Inc. is engaged in the
 business of creating and licensing software in the field of
 computational chemistry and represents and warrants to the
 licensee that it is not a competitor of Gaussian, Inc. and that
 it will not use this program in any manner prohibited above.
 ---------------------------------------------------------------
  

 Cite this work as:
 Gaussian 09, Revision D.01,
 M. J. Frisch, G. W. Trucks, H. B. Schlegel, G. E. Scuseria, 
 M. A. Robb, J. R. Cheeseman, G. Scalmani, V. Barone, B. Mennucci, 
 G. A. Petersson, H. Nakatsuji, M. Caricato, X. Li, H. P. Hratchian, 
 A. F. Izmaylov, J. Bloino, G. Zheng, J. L. Sonnenberg, M. Hada, 
 M. Ehara, K. Toyota, R. Fukuda, J. Hasegawa, M. Ishida, T. Nakajima, 
 Y. Honda, O. Kitao, H. Nakai, T. Vreven, J. A. Montgomery, Jr., 
 J. E. Peralta, F. Ogliaro, M. Bearpark, J. J. Heyd, E. Brothers, 
 K. N. Kudin, V. N. Staroverov, T. Keith, R. Kobayashi, J. Normand, 
 K. Raghavachari, A. Rendell, J. C. Burant, S. S. Iyengar, J. Tomasi, 
 M. Cossi, N. Rega, J. M. Millam, M. Klene, J. E. Knox, J. B. Cross, 
 V. Bakken, C. Adamo, J. Jaramillo, R. Gomperts, R. E. Stratmann, 
 O. Yazyev, A. J. Austin, R. Cammi, C. Pomelli, J. W. Ochterski, 
 R. L. Martin, K. Morokuma, V. G. Zakrzewski, G. A. Voth, 
 P. Salvador, J. J. Dannenberg, S. Dapprich, A. D. Daniels, 
 O. Farkas, J. B. Foresman, J. V. Ortiz, J. Cioslowski, 
 and D. J. Fox, Gaussian, Inc., Wallingford CT, 2013.
 
 ******************************************
 Gaussian 09:  ES64L-G09RevD.01 24-Apr-2013
                 2-Feb-2018 
 ******************************************
 %chk=Sub-10-Cl-18-tBu.R.1_2a_r_down_c.Cf1.chk
 ---------------------------------------------------------
 #M06/genecp denfit freq=(hpmodes,noraman,temperature=298)
 ---------------------------------------------------------
 1/10=4,30=1,38=1,112=298000/1,3;
 2/12=2,17=6,18=5,40=1/2;
 3/5=7,11=2,16=1,17=8,25=1,30=1,71=2,74=-54,82=47,140=1/1,2,3;
 4//1;
 5/5=2,38=5,98=1/2;
 8/6=4,10=90,11=11/1;
 11/6=1,8=1,9=11,15=111,16=1/1,2,10;
 10/6=1/2;
 6/7=2,8=2,9=2,10=2,18=1,28=1/1;
 7/8=11,10=1,25=1/1,2,3,16;
 1/10=4,30=1/3;
 99//99;
 -------------------------------------------------------
 Sub-10-Cl-18-tBu/R/1_2a_r_down_c/Cf1 step 4 (attempt 1)
 -------------------------------------------------------
 Symbolic Z-matrix:
 Charge =  1 Multiplicity = 1
 C                    0    -0.87343   2.3344   -0.68697 
 C                    0    -0.91084   3.60213  -1.24215 
 C                    0     0.14768   4.46948  -0.96505 
 C                    0     1.15375   4.05439  -0.11127 
 H                    0     1.972     4.7087    0.17859 
 C                    0     1.08736   2.75512   0.40872 
 N                    0     0.13783   1.88846   0.09613 
 H                    0     0.16633   5.47188  -1.38721 
 H                    0    -1.7544    3.90085  -1.85898 
 Cl                   0     2.26947   2.28837   1.58061 
 C                    0    -2.00623   1.40708  -0.80075 
 O                    0    -3.10737   1.84051  -1.40509 
 N                    0    -2.02901   0.24104  -0.25908 
 C                    0    -4.02208   0.7126   -1.37881 
 H                    0    -5.02094   1.10568  -1.1738 
 H                    0    -4.00453   0.25924  -2.37796 
 C                    0    -3.44075  -0.20099  -0.29218 
 C                    0    -4.11277  -0.07034   1.09967 
 H                    0    -3.49157  -1.25634  -0.59998 
 Pd                   0     0.05675  -0.48918  -0.09647 
 C                    0     4.8589   -0.01858  -0.60265 
 C                    0     3.82019   0.71694  -1.43255 
 C                    0     2.56046  -0.13703  -1.58784 
 C                    0     2.10909  -0.7091   -0.27036 
 C                    0     2.88257  -0.81641   0.82879 
 H                    0     1.75263   0.45846  -2.04414 
 C                    0    -0.90504  -2.53836  -2.03176 
 H                    0    -0.34509  -1.93158  -2.75461 
 H                    0    -1.94337  -2.18311  -2.02553 
 C                    0    -1.12987  -3.16027   0.42787 
 C                    0    -0.30478  -2.49905  -0.65194 
 C                    0     1.0985   -2.64601  -0.48519 
 H                    0    -2.18506  -2.85257   0.35392 
 H                    0    -0.76047  -2.88603   1.43181 
 C                    0     4.31555  -0.38411   0.75549 
 O                    0     4.9978   -0.36076   1.76233 
 H                    0     2.76842  -0.94501  -2.30607 
 C                    0     2.43836  -1.3042    2.16921 
 H                    0     3.00409  -2.19388   2.48021 
 H                    0     2.64514  -0.5402    2.93036 
 H                    0     1.36323  -1.51983   2.19644 
 O                    0    -0.98499  -4.54785   0.18773 
 H                    0    -1.54303  -5.05405   0.7952 
 H                    0    -0.92038  -3.57737  -2.39798 
 C                    0     1.96758  -3.18073  -1.57721 
 H                    0     3.0357   -3.06884  -1.36121 
 H                    0     1.74448  -4.25988  -1.61965 
 H                    0     1.74768  -2.77363  -2.56923 
 H                    0     1.40223  -2.97019   0.51199 
 H                    0     3.57141   1.67266  -0.94633 
 H                    0     4.21943   0.96266  -2.42525 
 H                    0     5.14789  -0.95541  -1.11127 
 H                    0     5.77762   0.5615   -0.45949 
 C                    0    -4.14247   1.37994   1.58342 
 H                    0    -4.62224   1.4272    2.56996 
 H                    0    -3.13051   1.79441   1.6998 
 H                    0    -4.71636   2.04146   0.91994 
 C                    0    -5.54051  -0.60748   0.9849 
 H                    0    -5.55256  -1.64826   0.62854 
 H                    0    -6.02759  -0.59081   1.96897 
 H                    0    -6.16908  -0.01029   0.30961 
 C                    0    -3.35454  -0.91274   2.12439 
 H                    0    -3.81846  -0.80326   3.1138 
 H                    0    -3.38553  -1.98198   1.87049 
 H                    0    -2.30369  -0.60377   2.21252 
 

 GradGradGradGradGradGradGradGradGradGradGradGradGradGradGradGradGradGrad
 Berny optimization.
 Initialization pass.
 Trust Radius=3.00D-01 FncErr=1.00D-07 GrdErr=1.00D-07
 Number of steps in this run=      2 maximum allowed number of steps=      2.
 GradGradGradGradGradGradGradGradGradGradGradGradGradGradGradGradGradGrad

 Stoichiometry    C24H34ClN2O3Pd(1+)
 Framework group  C1[X(C24H34ClN2O3Pd)]
 Deg. of freedom   189
 Full point group                 C1      NOp   1
 Largest Abelian subgroup         C1      NOp   1
 Largest concise Abelian subgroup C1      NOp   1
                         Standard orientation:                         
 ---------------------------------------------------------------------
 Center     Atomic      Atomic             Coordinates (Angstroms)
 Number     Number       Type             X           Y           Z
 ---------------------------------------------------------------------
      1          6           0       -0.873433    2.334403   -0.686974
      2          6           0       -0.910835    3.602132   -1.242147
      3          6           0        0.147677    4.469480   -0.965045
      4          6           0        1.153749    4.054394   -0.111265
      5          1           0        1.971999    4.708697    0.178586
      6          6           0        1.087358    2.755118    0.408720
      7          7           0        0.137827    1.888456    0.096128
      8          1           0        0.166329    5.471877   -1.387212
      9          1           0       -1.754404    3.900851   -1.858982
     10         17           0        2.269470    2.288369    1.580609
     11          6           0       -2.006233    1.407078   -0.800748
     12          8           0       -3.107368    1.840506   -1.405091
     13          7           0       -2.029009    0.241040   -0.259075
     14          6           0       -4.022080    0.712600   -1.378805
     15          1           0       -5.020942    1.105677   -1.173796
     16          1           0       -4.004529    0.259235   -2.377957
     17          6           0       -3.440747   -0.200989   -0.292181
     18          6           0       -4.112768   -0.070338    1.099669
     19          1           0       -3.491568   -1.256342   -0.599979
     20         46           0        0.056747   -0.489184   -0.096469
     21          6           0        4.858903   -0.018580   -0.602649
     22          6           0        3.820188    0.716941   -1.432550
     23          6           0        2.560455   -0.137032   -1.587840
     24          6           0        2.109090   -0.709104   -0.270362
     25          6           0        2.882567   -0.816412    0.828787
     26          1           0        1.752631    0.458455   -2.044138
     27          6           0       -0.905035   -2.538357   -2.031760
     28          1           0       -0.345091   -1.931582   -2.754611
     29          1           0       -1.943368   -2.183105   -2.025532
     30          6           0       -1.129870   -3.160270    0.427867
     31          6           0       -0.304775   -2.499045   -0.651944
     32          6           0        1.098496   -2.646007   -0.485192
     33          1           0       -2.185060   -2.852570    0.353916
     34          1           0       -0.760467   -2.886033    1.431812
     35          6           0        4.315547   -0.384110    0.755487
     36          8           0        4.997799   -0.360759    1.762332
     37          1           0        2.768422   -0.945013   -2.306067
     38          6           0        2.438355   -1.304203    2.169205
     39          1           0        3.004094   -2.193880    2.480211
     40          1           0        2.645143   -0.540199    2.930358
     41          1           0        1.363229   -1.519828    2.196439
     42          8           0       -0.984987   -4.547845    0.187731
     43          1           0       -1.543032   -5.054046    0.795195
     44          1           0       -0.920384   -3.577368   -2.397982
     45          6           0        1.967576   -3.180733   -1.577214
     46          1           0        3.035704   -3.068838   -1.361209
     47          1           0        1.744476   -4.259883   -1.619651
     48          1           0        1.747678   -2.773626   -2.569228
     49          1           0        1.402229   -2.970194    0.511987
     50          1           0        3.571407    1.672661   -0.946330
     51          1           0        4.219429    0.962656   -2.425255
     52          1           0        5.147894   -0.955413   -1.111273
     53          1           0        5.777624    0.561496   -0.459485
     54          6           0       -4.142469    1.379941    1.583421
     55          1           0       -4.622237    1.427198    2.569963
     56          1           0       -3.130509    1.794405    1.699799
     57          1           0       -4.716360    2.041463    0.919938
     58          6           0       -5.540509   -0.607480    0.984896
     59          1           0       -5.552563   -1.648259    0.628536
     60          1           0       -6.027586   -0.590808    1.968973
     61          1           0       -6.169085   -0.010291    0.309609
     62          6           0       -3.354545   -0.912744    2.124394
     63          1           0       -3.818463   -0.803257    3.113802
     64          1           0       -3.385534   -1.981980    1.870489
     65          1           0       -2.303687   -0.603772    2.212517
 ---------------------------------------------------------------------
 Rotational constants (GHZ):      0.1755577      0.1171254      0.0868045
 General basis read from cards:  (5D, 7F)
 ======================================================================================================
                                       Pseudopotential Parameters
 ======================================================================================================
  Center     Atomic      Valence      Angular      Power
  Number     Number     Electrons     Momentum     of R      Exponent        Coefficient   SO-Coeffient
 ======================================================================================================
    1          6
                                   No pseudopotential on this center.
    2          6
                                   No pseudopotential on this center.
    3          6
                                   No pseudopotential on this center.
    4          6
                                   No pseudopotential on this center.
    5          1
                                   No pseudopotential on this center.
    6          6
                                   No pseudopotential on this center.
    7          7
                                   No pseudopotential on this center.
    8          1
                                   No pseudopotential on this center.
    9          1
                                   No pseudopotential on this center.
   10         17
                                   No pseudopotential on this center.
   11          6
                                   No pseudopotential on this center.
   12          8
                                   No pseudopotential on this center.
   13          7
                                   No pseudopotential on this center.
   14          6
                                   No pseudopotential on this center.
   15          1
                                   No pseudopotential on this center.
   16          1
                                   No pseudopotential on this center.
   17          6
                                   No pseudopotential on this center.
   18          6
                                   No pseudopotential on this center.
   19          1
                                   No pseudopotential on this center.
   20         46           18
                                      F and up 
                                                     0      598.3336444       -0.05631770    0.00000000
                                                     1      162.4298290      -20.12880360    0.00000000
                                                     2       51.5714771     -105.81979230    0.00000000
                                                     2       16.4888260      -42.57333450    0.00000000
                                                     2        5.8287656       -3.61650860    0.00000000
                                      S - F
                                                     0       73.3806304        3.00036510    0.00000000
                                                     1       14.7550438       32.43500930    0.00000000
                                                     2       17.8350204      459.08303830    0.00000000
                                                     2       12.7111477     -868.06290290    0.00000000
                                                     2        9.3292063      514.47260980    0.00000000
                                      P - F
                                                     0       55.6689877        4.95930990    0.00000000
                                                     1       64.2337771       21.17110290    0.00000000
                                                     2       17.6254952      605.05600920    0.00000000
                                                     2       11.9058155     -726.96418460    0.00000000
                                                     2        8.5100832      396.32748830    0.00000000
                                      D - F
                                                     0       49.9994728        3.05087450    0.00000000
                                                     1       39.7477547       22.25065800    0.00000000
                                                     2       11.4321366      674.83576980    0.00000000
                                                     2        9.1790080    -1040.85540480    0.00000000
                                                     2        7.5624429      505.93751470    0.00000000
   21          6
                                   No pseudopotential on this center.
   22          6
                                   No pseudopotential on this center.
   23          6
                                   No pseudopotential on this center.
   24          6
                                   No pseudopotential on this center.
   25          6
                                   No pseudopotential on this center.
   26          1
                                   No pseudopotential on this center.
   27          6
                                   No pseudopotential on this center.
   28          1
                                   No pseudopotential on this center.
   29          1
                                   No pseudopotential on this center.
   30          6
                                   No pseudopotential on this center.
   31          6
                                   No pseudopotential on this center.
   32          6
                                   No pseudopotential on this center.
   33          1
                                   No pseudopotential on this center.
   34          1
                                   No pseudopotential on this center.
   35          6
                                   No pseudopotential on this center.
   36          8
                                   No pseudopotential on this center.
   37          1
                                   No pseudopotential on this center.
   38          6
                                   No pseudopotential on this center.
   39          1
                                   No pseudopotential on this center.
   40          1
                                   No pseudopotential on this center.
   41          1
                                   No pseudopotential on this center.
   42          8
                                   No pseudopotential on this center.
   43          1
                                   No pseudopotential on this center.
   44          1
                                   No pseudopotential on this center.
   45          6
                                   No pseudopotential on this center.
   46          1
                                   No pseudopotential on this center.
   47          1
                                   No pseudopotential on this center.
   48          1
                                   No pseudopotential on this center.
   49          1
                                   No pseudopotential on this center.
   50          1
                                   No pseudopotential on this center.
   51          1
                                   No pseudopotential on this center.
   52          1
                                   No pseudopotential on this center.
   53          1
                                   No pseudopotential on this center.
   54          6
                                   No pseudopotential on this center.
   55          1
                                   No pseudopotential on this center.
   56          1
                                   No pseudopotential on this center.
   57          1
                                   No pseudopotential on this center.
   58          6
                                   No pseudopotential on this center.
   59          1
                                   No pseudopotential on this center.
   60          1
                                   No pseudopotential on this center.
   61          1
                                   No pseudopotential on this center.
   62          6
                                   No pseudopotential on this center.
   63          1
                                   No pseudopotential on this center.
   64          1
                                   No pseudopotential on this center.
   65          1
                                   No pseudopotential on this center.
 ======================================================================================================
 There are   666 symmetry adapted cartesian basis functions of A   symmetry.
 There are   634 symmetry adapted basis functions of A   symmetry.
   634 basis functions,  1169 primitive gaussians,   666 cartesian basis functions
   125 alpha electrons      125 beta electrons
       nuclear repulsion energy      3970.6341056881 Hartrees.
 NAtoms=   65 NActive=   65 NUniq=   65 SFac= 1.00D+00 NAtFMM=   60 NAOKFM=T Big=T
 Integral buffers will be    131072 words long.
 Raffenetti 2 integral format.
 Two-electron integral symmetry is turned on.
 Standard density basis: Auto (5D, 7F)
  2775 Density fitting functions
 There are  2775 symmetry adapted density basis functions of A   symmetry.
 One-electron integrals computed using PRISM.
   1 Symmetry operations used in ECPInt.
 ECPInt:  NShTT=   25878 NPrTT=  135610 LenC2=   22940 LenP2D=   71518.
 LDataN:  DoStor=T MaxTD1= 5 Len=  102
 NBasis=   634 RedAO= T EigKep=  1.04D-06  NBF=   634
 NBsUse=   633 1.00D-06 EigRej=  3.48D-07 NBFU=   633
 Defaulting to unpruned grid for atomic number  46.
 ExpMin= 2.62D-02 ExpMax= 2.52D+04 ExpMxC= 3.78D+03 IAcc=3 IRadAn=         5 AccDes= 0.00D+00
 Harris functional with IExCor= 1009 and IRadAn=       5 diagonalized for initial guess.
 HarFok:  IExCor= 1009 AccDes= 0.00D+00 IRadAn=         5 IDoV= 1 UseB2=F ITyADJ=14
 ICtDFT=  3500011 ScaDFX=  1.000000  1.000000  1.000000  1.000000
 Defaulting to unpruned grid for atomic number  46.
 Defaulting to unpruned grid for atomic number  46.
 Defaulting to unpruned grid for atomic number  46.
 Defaulting to unpruned grid for atomic number  46.
 Defaulting to unpruned grid for atomic number  46.
 Defaulting to unpruned grid for atomic number  46.
 Defaulting to unpruned grid for atomic number  46.
 Defaulting to unpruned grid for atomic number  46.
 Defaulting to unpruned grid for atomic number  46.
 Defaulting to unpruned grid for atomic number  46.
 Defaulting to unpruned grid for atomic number  46.
 Defaulting to unpruned grid for atomic number  46.
 Defaulting to unpruned grid for atomic number  46.
 Defaulting to unpruned grid for atomic number  46.
 Defaulting to unpruned grid for atomic number  46.
 Defaulting to unpruned grid for atomic number  46.
 Defaulting to unpruned grid for atomic number  46.
 Defaulting to unpruned grid for atomic number  46.
 Defaulting to unpruned grid for atomic number  46.
 Defaulting to unpruned grid for atomic number  46.
 Defaulting to unpruned grid for atomic number  46.
 Defaulting to unpruned grid for atomic number  46.
 Defaulting to unpruned grid for atomic number  46.
 Defaulting to unpruned grid for atomic number  46.
 Defaulting to unpruned grid for atomic number  46.
 Defaulting to unpruned grid for atomic number  46.
 Defaulting to unpruned grid for atomic number  46.
 Defaulting to unpruned grid for atomic number  46.
 FoFCou: FMM=F IPFlag=           0 FMFlag=      100000 FMFlg1=        2001
         NFxFlg=           0 DoJE=T BraDBF=F KetDBF=T FulRan=T
         wScrn=  0.000000 ICntrl=     500 IOpCl=  0 I1Cent=   200000004 NGrid=           0
         NMat0=    1 NMatS0=      1 NMatT0=    0 NMatD0=    1 NMtDS0=    0 NMtDT0=    0
 Petite list used in FoFCou.
 Requested convergence on RMS density matrix=1.00D-08 within 128 cycles.
 Requested convergence on MAX density matrix=1.00D-06.
 Requested convergence on             energy=1.00D-06.
 No special actions if energy rises.
 Defaulting to unpruned grid for atomic number  46.
 Defaulting to unpruned grid for atomic number  46.
 Defaulting to unpruned grid for atomic number  46.
 Defaulting to unpruned grid for atomic number  46.
 Defaulting to unpruned grid for atomic number  46.
 Defaulting to unpruned grid for atomic number  46.
 Defaulting to unpruned grid for atomic number  46.
 Defaulting to unpruned grid for atomic number  46.
 Defaulting to unpruned grid for atomic number  46.
 Defaulting to unpruned grid for atomic number  46.
 Defaulting to unpruned grid for atomic number  46.
 Defaulting to unpruned grid for atomic number  46.
 Defaulting to unpruned grid for atomic number  46.
 Defaulting to unpruned grid for atomic number  46.
 Defaulting to unpruned grid for atomic number  46.
 Defaulting to unpruned grid for atomic number  46.
 Defaulting to unpruned grid for atomic number  46.
 Defaulting to unpruned grid for atomic number  46.
 Defaulting to unpruned grid for atomic number  46.
 Defaulting to unpruned grid for atomic number  46.
 Defaulting to unpruned grid for atomic number  46.
 Defaulting to unpruned grid for atomic number  46.
 Defaulting to unpruned grid for atomic number  46.
 Defaulting to unpruned grid for atomic number  46.
 Defaulting to unpruned grid for atomic number  46.
 Defaulting to unpruned grid for atomic number  46.
 Defaulting to unpruned grid for atomic number  46.
 Defaulting to unpruned grid for atomic number  46.
 EnCoef did    10 forward-backward iterations
 EnCoef did   100 forward-backward iterations
 EnCoef did   100 forward-backward iterations
 EnCoef did   100 forward-backward iterations
 Restarting incremental Fock formation.
 SCF Done:  E(RM06) =  -1856.01638873     A.U. after   27 cycles
            NFock= 27  Conv=0.67D-09     -V/T= 2.0508
 DoSCS=F DFT=T ScalE2(SS,OS)=  1.000000  1.000000
 Range of M.O.s used for correlation:     1   633
 NBasis=   634 NAE=   125 NBE=   125 NFC=     0 NFV=     0
 NROrb=    633 NOA=   125 NOB=   125 NVA=   508 NVB=   508

 **** Warning!!: The largest alpha MO coefficient is  0.11856656D+03

   1 Symmetry operations used in ECPInt.
 ECPInt:  NShTT=   25878 NPrTT=  135610 LenC2=   22940 LenP2D=   71518.
 LDataN:  DoStor=T MaxTD1= 6 Len=  172
 Number of processors reduced to   9 by ecpmxn.
 Symmetrizing basis deriv contribution to polar:
 IMax=3 JMax=2 DiffMx= 0.00D+00
 G2DrvN: will do    66 centers at a time, making    1 passes.
 Calling FoFCou, ICntrl=  3107 FMM=T I1Cent=   0 AccDes= 0.00D+00.
 Defaulting to unpruned grid for atomic number  46.
 Defaulting to unpruned grid for atomic number  46.
 Defaulting to unpruned grid for atomic number  46.
 Defaulting to unpruned grid for atomic number  46.
 Defaulting to unpruned grid for atomic number  46.
 Defaulting to unpruned grid for atomic number  46.
 Defaulting to unpruned grid for atomic number  46.
 Defaulting to unpruned grid for atomic number  46.
 Defaulting to unpruned grid for atomic number  46.
 Defaulting to unpruned grid for atomic number  46.
 Defaulting to unpruned grid for atomic number  46.
 Defaulting to unpruned grid for atomic number  46.
 Defaulting to unpruned grid for atomic number  46.
 Defaulting to unpruned grid for atomic number  46.
 Defaulting to unpruned grid for atomic number  46.
 Defaulting to unpruned grid for atomic number  46.
 Defaulting to unpruned grid for atomic number  46.
 Defaulting to unpruned grid for atomic number  46.
 Defaulting to unpruned grid for atomic number  46.
 Defaulting to unpruned grid for atomic number  46.
 Defaulting to unpruned grid for atomic number  46.
 Defaulting to unpruned grid for atomic number  46.
 Defaulting to unpruned grid for atomic number  46.
 Defaulting to unpruned grid for atomic number  46.
 Defaulting to unpruned grid for atomic number  46.
 Defaulting to unpruned grid for atomic number  46.
 Defaulting to unpruned grid for atomic number  46.
 Defaulting to unpruned grid for atomic number  46.
 End of G2Drv F.D. properties file   721 does not exist.
 End of G2Drv F.D. properties file   722 does not exist.
 End of G2Drv F.D. properties file   788 does not exist.
          IDoAtm=11111111111111111111111111111111111111111111111111
          IDoAtm=111111111111111
          Differentiating once with respect to electric field.
                with respect to dipole field.
          Differentiating once with respect to nuclear coordinates.
 Defaulting to unpruned grid for atomic number  46.
 CalDSu exits because no D1Ps are significant.
 Defaulting to unpruned grid for atomic number  46.
 Defaulting to unpruned grid for atomic number  46.
 Defaulting to unpruned grid for atomic number  46.
 Defaulting to unpruned grid for atomic number  46.
 Defaulting to unpruned grid for atomic number  46.
 Defaulting to unpruned grid for atomic number  46.
 Defaulting to unpruned grid for atomic number  46.
 Defaulting to unpruned grid for atomic number  46.
 Defaulting to unpruned grid for atomic number  46.
 Defaulting to unpruned grid for atomic number  46.
 Defaulting to unpruned grid for atomic number  46.
 Defaulting to unpruned grid for atomic number  46.
 Defaulting to unpruned grid for atomic number  46.
 Defaulting to unpruned grid for atomic number  46.
 Defaulting to unpruned grid for atomic number  46.
 Defaulting to unpruned grid for atomic number  46.
 Defaulting to unpruned grid for atomic number  46.
 Defaulting to unpruned grid for atomic number  46.
 Defaulting to unpruned grid for atomic number  46.
 Defaulting to unpruned grid for atomic number  46.
 Defaulting to unpruned grid for atomic number  46.
 Defaulting to unpruned grid for atomic number  46.
 Defaulting to unpruned grid for atomic number  46.
 Defaulting to unpruned grid for atomic number  46.
 Defaulting to unpruned grid for atomic number  46.
 Defaulting to unpruned grid for atomic number  46.
 Defaulting to unpruned grid for atomic number  46.
 Defaulting to unpruned grid for atomic number  46.
          There are   198 degrees of freedom in the 1st order CPHF.  IDoFFX=6 NUNeed=     3.
    198 vectors produced by pass  0 Test12= 6.35D-14 1.00D-09 XBig12= 4.09D+02 7.86D+00.
 AX will form    84 AO Fock derivatives at one time.
    198 vectors produced by pass  1 Test12= 6.35D-14 1.00D-09 XBig12= 1.21D+02 1.56D+00.
    195 vectors produced by pass  2 Test12= 6.35D-14 1.00D-09 XBig12= 2.34D+00 1.18D-01.
    195 vectors produced by pass  3 Test12= 6.35D-14 1.00D-09 XBig12= 1.35D-02 8.32D-03.
    195 vectors produced by pass  4 Test12= 6.35D-14 1.00D-09 XBig12= 6.17D-05 4.41D-04.
    195 vectors produced by pass  5 Test12= 6.35D-14 1.00D-09 XBig12= 1.92D-07 2.20D-05.
    195 vectors produced by pass  6 Test12= 6.35D-14 1.00D-09 XBig12= 5.28D-10 1.53D-06.
    194 vectors produced by pass  7 Test12= 6.35D-14 1.00D-09 XBig12= 3.27D-12 7.33D-08.
    194 vectors produced by pass  8 Test12= 6.35D-14 1.00D-09 XBig12= 2.86D-13 2.14D-08.
    193 vectors produced by pass  9 Test12= 6.35D-14 1.00D-09 XBig12= 9.02D-14 1.36D-08.
    193 vectors produced by pass 10 Test12= 6.35D-14 1.00D-09 XBig12= 8.26D-14 1.20D-08.
    147 vectors produced by pass 11 Test12= 6.35D-14 1.00D-09 XBig12= 7.47D-14 1.12D-08.
    134 vectors produced by pass 12 Test12= 6.35D-14 1.00D-09 XBig12= 6.12D-14 8.78D-09.
     90 vectors produced by pass 13 Test12= 6.35D-14 1.00D-09 XBig12= 2.85D-14 5.94D-09.
     35 vectors produced by pass 14 Test12= 6.35D-14 1.00D-09 XBig12= 4.58D-14 7.48D-09.
     26 vectors produced by pass 15 Test12= 6.35D-14 1.00D-09 XBig12= 2.27D-14 5.28D-09.
     26 vectors produced by pass 16 Test12= 6.35D-14 1.00D-09 XBig12= 2.47D-14 6.10D-09.
     26 vectors produced by pass 17 Test12= 6.35D-14 1.00D-09 XBig12= 2.27D-14 5.01D-09.
     26 vectors produced by pass 18 Test12= 6.35D-14 1.00D-09 XBig12= 3.86D-14 6.76D-09.
     25 vectors produced by pass 19 Test12= 6.35D-14 1.00D-09 XBig12= 1.25D-14 3.79D-09.
     25 vectors produced by pass 20 Test12= 6.35D-14 1.00D-09 XBig12= 1.17D-14 3.39D-09.
     25 vectors produced by pass 21 Test12= 6.35D-14 1.00D-09 XBig12= 2.13D-14 4.95D-09.
     25 vectors produced by pass 22 Test12= 6.35D-14 1.00D-09 XBig12= 2.63D-14 5.48D-09.
      7 vectors produced by pass 23 Test12= 6.35D-14 1.00D-09 XBig12= 3.92D-15 2.02D-09.
      7 vectors produced by pass 24 Test12= 6.35D-14 1.00D-09 XBig12= 7.08D-15 2.76D-09.
      7 vectors produced by pass 25 Test12= 6.35D-14 1.00D-09 XBig12= 1.04D-14 3.31D-09.
      7 vectors produced by pass 26 Test12= 6.35D-14 1.00D-09 XBig12= 5.77D-15 2.44D-09.
      7 vectors produced by pass 27 Test12= 6.35D-14 1.00D-09 XBig12= 1.76D-14 3.95D-09.
      7 vectors produced by pass 28 Test12= 6.35D-14 1.00D-09 XBig12= 4.98D-15 2.47D-09.
      7 vectors produced by pass 29 Test12= 6.35D-14 1.00D-09 XBig12= 9.89D-15 3.05D-09.
      7 vectors produced by pass 30 Test12= 6.35D-14 1.00D-09 XBig12= 2.46D-14 5.63D-09.
      7 vectors produced by pass 31 Test12= 6.35D-14 1.00D-09 XBig12= 7.98D-15 2.93D-09.
      7 vectors produced by pass 32 Test12= 6.35D-14 1.00D-09 XBig12= 1.44D-14 4.92D-09.
      7 vectors produced by pass 33 Test12= 6.35D-14 1.00D-09 XBig12= 1.40D-14 3.78D-09.
      7 vectors produced by pass 34 Test12= 6.35D-14 1.00D-09 XBig12= 1.01D-14 3.73D-09.
      7 vectors produced by pass 35 Test12= 6.35D-14 1.00D-09 XBig12= 1.71D-14 4.28D-09.
      7 vectors produced by pass 36 Test12= 6.35D-14 1.00D-09 XBig12= 1.41D-14 3.93D-09.
      7 vectors produced by pass 37 Test12= 6.35D-14 1.00D-09 XBig12= 2.18D-14 5.48D-09.
      7 vectors produced by pass 38 Test12= 6.35D-14 1.00D-09 XBig12= 1.51D-14 4.27D-09.
      7 vectors produced by pass 39 Test12= 6.35D-14 1.00D-09 XBig12= 1.96D-14 5.06D-09.
      7 vectors produced by pass 40 Test12= 6.35D-14 1.00D-09 XBig12= 9.50D-15 3.05D-09.
      6 vectors produced by pass 41 Test12= 6.35D-14 1.00D-09 XBig12= 3.97D-15 2.61D-09.
      5 vectors produced by pass 42 Test12= 6.35D-14 1.00D-09 XBig12= 3.78D-15 2.38D-09.
      5 vectors produced by pass 43 Test12= 6.35D-14 1.00D-09 XBig12= 5.75D-15 2.40D-09.
      5 vectors produced by pass 44 Test12= 6.35D-14 1.00D-09 XBig12= 8.28D-15 3.01D-09.
      5 vectors produced by pass 45 Test12= 6.35D-14 1.00D-09 XBig12= 9.66D-15 3.31D-09.
      5 vectors produced by pass 46 Test12= 6.35D-14 1.00D-09 XBig12= 8.26D-15 2.73D-09.
      5 vectors produced by pass 47 Test12= 6.35D-14 1.00D-09 XBig12= 8.66D-15 3.12D-09.
      5 vectors produced by pass 48 Test12= 6.35D-14 1.00D-09 XBig12= 1.34D-14 3.86D-09.
      5 vectors produced by pass 49 Test12= 6.35D-14 1.00D-09 XBig12= 2.45D-14 5.42D-09.
      5 vectors produced by pass 50 Test12= 6.35D-14 1.00D-09 XBig12= 4.18D-15 2.32D-09.
      5 vectors produced by pass 51 Test12= 6.35D-14 1.00D-09 XBig12= 2.61D-15 2.05D-09.
      5 vectors produced by pass 52 Test12= 6.35D-14 1.00D-09 XBig12= 4.79D-15 2.25D-09.
      5 vectors produced by pass 53 Test12= 6.35D-14 1.00D-09 XBig12= 5.87D-15 2.87D-09.
      5 vectors produced by pass 54 Test12= 6.35D-14 1.00D-09 XBig12= 8.39D-15 3.18D-09.
      5 vectors produced by pass 55 Test12= 6.35D-14 1.00D-09 XBig12= 8.05D-15 2.97D-09.
      5 vectors produced by pass 56 Test12= 6.35D-14 1.00D-09 XBig12= 3.72D-15 2.09D-09.
      5 vectors produced by pass 57 Test12= 6.35D-14 1.00D-09 XBig12= 1.11D-14 3.29D-09.
      5 vectors produced by pass 58 Test12= 6.35D-14 1.00D-09 XBig12= 5.80D-15 3.24D-09.
      5 vectors produced by pass 59 Test12= 6.35D-14 1.00D-09 XBig12= 1.19D-14 3.93D-09.
      5 vectors produced by pass 60 Test12= 6.35D-14 1.00D-09 XBig12= 1.53D-14 4.53D-09.
      5 vectors produced by pass 61 Test12= 6.35D-14 1.00D-09 XBig12= 7.88D-15 2.69D-09.
      5 vectors produced by pass 62 Test12= 6.35D-14 1.00D-09 XBig12= 7.60D-15 2.93D-09.
      5 vectors produced by pass 63 Test12= 6.35D-14 1.00D-09 XBig12= 1.13D-14 4.10D-09.
      5 vectors produced by pass 64 Test12= 6.35D-14 1.00D-09 XBig12= 4.07D-15 1.96D-09.
      5 vectors produced by pass 65 Test12= 6.35D-14 1.00D-09 XBig12= 4.10D-15 2.10D-09.
      5 vectors produced by pass 66 Test12= 6.35D-14 1.00D-09 XBig12= 6.45D-15 3.21D-09.
      5 vectors produced by pass 67 Test12= 6.35D-14 1.00D-09 XBig12= 8.71D-15 3.34D-09.
      5 vectors produced by pass 68 Test12= 6.35D-14 1.00D-09 XBig12= 1.33D-14 3.98D-09.
      5 vectors produced by pass 69 Test12= 6.35D-14 1.00D-09 XBig12= 5.20D-15 2.48D-09.
      5 vectors produced by pass 70 Test12= 6.35D-14 1.00D-09 XBig12= 6.57D-15 2.63D-09.
      5 vectors produced by pass 71 Test12= 6.35D-14 1.00D-09 XBig12= 4.79D-15 2.15D-09.
      5 vectors produced by pass 72 Test12= 6.35D-14 1.00D-09 XBig12= 9.28D-15 3.32D-09.
      5 vectors produced by pass 73 Test12= 6.35D-14 1.00D-09 XBig12= 1.25D-14 3.72D-09.
      5 vectors produced by pass 74 Test12= 6.35D-14 1.00D-09 XBig12= 6.21D-15 2.58D-09.
      5 vectors produced by pass 75 Test12= 6.35D-14 1.00D-09 XBig12= 2.08D-14 4.57D-09.
      5 vectors produced by pass 76 Test12= 6.35D-14 1.00D-09 XBig12= 4.11D-15 2.44D-09.
      5 vectors produced by pass 77 Test12= 6.35D-14 1.00D-09 XBig12= 1.03D-14 3.21D-09.
      5 vectors produced by pass 78 Test12= 6.35D-14 1.00D-09 XBig12= 8.59D-15 3.08D-09.
      5 vectors produced by pass 79 Test12= 6.35D-14 1.00D-09 XBig12= 4.72D-15 2.50D-09.
      5 vectors produced by pass 80 Test12= 6.35D-14 1.00D-09 XBig12= 3.88D-15 2.31D-09.
      5 vectors produced by pass 81 Test12= 6.35D-14 1.00D-09 XBig12= 7.65D-15 2.96D-09.
      5 vectors produced by pass 82 Test12= 6.35D-14 1.00D-09 XBig12= 2.06D-14 4.57D-09.
      5 vectors produced by pass 83 Test12= 6.35D-14 1.00D-09 XBig12= 3.09D-15 2.04D-09.
      5 vectors produced by pass 84 Test12= 6.35D-14 1.00D-09 XBig12= 3.64D-15 2.51D-09.
      5 vectors produced by pass 85 Test12= 6.35D-14 1.00D-09 XBig12= 5.60D-15 2.39D-09.
      5 vectors produced by pass 86 Test12= 6.35D-14 1.00D-09 XBig12= 2.76D-15 2.21D-09.
      5 vectors produced by pass 87 Test12= 6.35D-14 1.00D-09 XBig12= 6.30D-15 2.88D-09.
      5 vectors produced by pass 88 Test12= 6.35D-14 1.00D-09 XBig12= 5.27D-15 2.67D-09.
      5 vectors produced by pass 89 Test12= 6.35D-14 1.00D-09 XBig12= 4.21D-15 2.20D-09.
      5 vectors produced by pass 90 Test12= 6.35D-14 1.00D-09 XBig12= 1.41D-14 3.88D-09.
      5 vectors produced by pass 91 Test12= 6.35D-14 1.00D-09 XBig12= 3.20D-15 1.84D-09.
      5 vectors produced by pass 92 Test12= 6.35D-14 1.00D-09 XBig12= 4.40D-15 2.11D-09.
      5 vectors produced by pass 93 Test12= 6.35D-14 1.00D-09 XBig12= 7.32D-15 2.99D-09.
      5 vectors produced by pass 94 Test12= 6.35D-14 1.00D-09 XBig12= 2.12D-15 1.65D-09.
      5 vectors produced by pass 95 Test12= 6.35D-14 1.00D-09 XBig12= 9.29D-15 3.35D-09.
      5 vectors produced by pass 96 Test12= 6.35D-14 1.00D-09 XBig12= 3.10D-15 2.12D-09.
      5 vectors produced by pass 97 Test12= 6.35D-14 1.00D-09 XBig12= 7.94D-15 3.06D-09.
      5 vectors produced by pass 98 Test12= 6.35D-14 1.00D-09 XBig12= 3.29D-15 1.86D-09.
      5 vectors produced by pass 99 Test12= 6.35D-14 1.00D-09 XBig12= 8.63D-15 3.36D-09.
      5 vectors produced by pass100 Test12= 6.35D-14 1.00D-09 XBig12= 2.65D-15 1.92D-09.
      5 vectors produced by pass101 Test12= 6.35D-14 1.00D-09 XBig12= 6.70D-15 2.72D-09.
      5 vectors produced by pass102 Test12= 6.35D-14 1.00D-09 XBig12= 3.07D-15 1.72D-09.
      5 vectors produced by pass103 Test12= 6.35D-14 1.00D-09 XBig12= 5.81D-15 2.38D-09.
      5 vectors produced by pass104 Test12= 6.35D-14 1.00D-09 XBig12= 3.27D-15 1.71D-09.
      5 vectors produced by pass105 Test12= 6.35D-14 1.00D-09 XBig12= 8.55D-15 2.80D-09.
      5 vectors produced by pass106 Test12= 6.35D-14 1.00D-09 XBig12= 2.24D-15 1.60D-09.
      5 vectors produced by pass107 Test12= 6.35D-14 1.00D-09 XBig12= 4.17D-15 2.10D-09.
      5 vectors produced by pass108 Test12= 6.35D-14 1.00D-09 XBig12= 1.40D-14 4.26D-09.
      5 vectors produced by pass109 Test12= 6.35D-14 1.00D-09 XBig12= 6.21D-15 2.65D-09.
      5 vectors produced by pass110 Test12= 6.35D-14 1.00D-09 XBig12= 1.80D-15 1.73D-09.
      5 vectors produced by pass111 Test12= 6.35D-14 1.00D-09 XBig12= 3.00D-15 1.87D-09.
      5 vectors produced by pass112 Test12= 6.35D-14 1.00D-09 XBig12= 2.21D-15 1.54D-09.
      5 vectors produced by pass113 Test12= 6.35D-14 1.00D-09 XBig12= 1.45D-14 3.70D-09.
      5 vectors produced by pass114 Test12= 6.35D-14 1.00D-09 XBig12= 5.27D-15 2.09D-09.
      5 vectors produced by pass115 Test12= 6.35D-14 1.00D-09 XBig12= 8.91D-15 3.28D-09.
      5 vectors produced by pass116 Test12= 6.35D-14 1.00D-09 XBig12= 3.18D-15 1.75D-09.
      5 vectors produced by pass117 Test12= 6.35D-14 1.00D-09 XBig12= 1.74D-15 1.40D-09.
      5 vectors produced by pass118 Test12= 6.35D-14 1.00D-09 XBig12= 2.50D-15 1.70D-09.
      5 vectors produced by pass119 Test12= 6.35D-14 1.00D-09 XBig12= 1.77D-15 1.38D-09.
      5 vectors produced by pass120 Test12= 6.35D-14 1.00D-09 XBig12= 3.22D-15 1.82D-09.
      5 vectors produced by pass121 Test12= 6.35D-14 1.00D-09 XBig12= 3.85D-15 2.12D-09.
      5 vectors produced by pass122 Test12= 6.35D-14 1.00D-09 XBig12= 5.42D-15 2.98D-09.
      5 vectors produced by pass123 Test12= 6.35D-14 1.00D-09 XBig12= 3.19D-15 1.94D-09.
      5 vectors produced by pass124 Test12= 6.35D-14 1.00D-09 XBig12= 3.50D-15 1.96D-09.
      5 vectors produced by pass125 Test12= 6.35D-14 1.00D-09 XBig12= 6.35D-15 2.58D-09.
      5 vectors produced by pass126 Test12= 6.35D-14 1.00D-09 XBig12= 3.40D-15 2.06D-09.
      5 vectors produced by pass127 Test12= 6.35D-14 1.00D-09 XBig12= 2.53D-15 1.81D-09.
      5 vectors produced by pass128 Test12= 6.35D-14 1.00D-09 XBig12= 1.49D-14 3.94D-09.
      5 vectors produced by pass129 Test12= 6.35D-14 1.00D-09 XBig12= 3.93D-15 1.90D-09.
      5 vectors produced by pass130 Test12= 6.35D-14 1.00D-09 XBig12= 1.13D-14 3.59D-09.
      4 vectors produced by pass131 Test12= 6.35D-14 1.00D-09 XBig12= 1.84D-15 1.34D-09.
      4 vectors produced by pass132 Test12= 6.35D-14 1.00D-09 XBig12= 6.21D-15 2.62D-09.
      4 vectors produced by pass133 Test12= 6.35D-14 1.00D-09 XBig12= 6.64D-15 2.66D-09.
      3 vectors produced by pass134 Test12= 6.35D-14 1.00D-09 XBig12= 1.54D-15 1.28D-09.
      3 vectors produced by pass135 Test12= 6.35D-14 1.00D-09 XBig12= 2.70D-15 1.79D-09.
      3 vectors produced by pass136 Test12= 6.35D-14 1.00D-09 XBig12= 2.07D-15 1.41D-09.
      3 vectors produced by pass137 Test12= 6.35D-14 1.00D-09 XBig12= 9.02D-15 3.34D-09.
      3 vectors produced by pass138 Test12= 6.35D-14 1.00D-09 XBig12= 2.82D-15 1.92D-09.
      3 vectors produced by pass139 Test12= 6.35D-14 1.00D-09 XBig12= 2.38D-15 1.58D-09.
      3 vectors produced by pass140 Test12= 6.35D-14 1.00D-09 XBig12= 2.97D-15 1.76D-09.
      3 vectors produced by pass141 Test12= 6.35D-14 1.00D-09 XBig12= 1.64D-15 1.35D-09.
      3 vectors produced by pass142 Test12= 6.35D-14 1.00D-09 XBig12= 3.19D-15 1.85D-09.
      3 vectors produced by pass143 Test12= 6.35D-14 1.00D-09 XBig12= 1.44D-15 1.24D-09.
      3 vectors produced by pass144 Test12= 6.35D-14 1.00D-09 XBig12= 2.38D-15 1.55D-09.
      3 vectors produced by pass145 Test12= 6.35D-14 1.00D-09 XBig12= 8.31D-15 3.28D-09.
      3 vectors produced by pass146 Test12= 6.35D-14 1.00D-09 XBig12= 3.64D-15 1.98D-09.
      3 vectors produced by pass147 Test12= 6.35D-14 1.00D-09 XBig12= 2.05D-15 1.50D-09.
      3 vectors produced by pass148 Test12= 6.35D-14 1.00D-09 XBig12= 2.79D-15 1.80D-09.
      3 vectors produced by pass149 Test12= 6.35D-14 1.00D-09 XBig12= 7.71D-15 2.78D-09.
      3 vectors produced by pass150 Test12= 6.35D-14 1.00D-09 XBig12= 4.06D-15 2.04D-09.
      3 vectors produced by pass151 Test12= 6.35D-14 1.00D-09 XBig12= 4.28D-15 2.09D-09.
      3 vectors produced by pass152 Test12= 6.35D-14 1.00D-09 XBig12= 6.71D-15 3.06D-09.
      3 vectors produced by pass153 Test12= 6.35D-14 1.00D-09 XBig12= 2.10D-15 1.56D-09.
      3 vectors produced by pass154 Test12= 6.35D-14 1.00D-09 XBig12= 1.18D-14 3.15D-09.
      3 vectors produced by pass155 Test12= 6.35D-14 1.00D-09 XBig12= 2.22D-15 1.47D-09.
      3 vectors produced by pass156 Test12= 6.35D-14 1.00D-09 XBig12= 5.01D-15 2.15D-09.
      1 vectors produced by pass157 Test12= 6.35D-14 1.00D-09 XBig12= 1.11D-15 1.11D-09.
 InvSVY:  IOpt=1 It=  1 EMax= 1.42D-14
 Solved reduced A of dimension  3414 with   198 vectors.
 Isotropic polarizability for W=    0.000000      345.09 Bohr**3.
 End of Minotr F.D. properties file   721 does not exist.
 End of Minotr F.D. properties file   722 does not exist.
 End of Minotr F.D. properties file   788 does not exist.

 **********************************************************************

            Population analysis using the SCF density.

 **********************************************************************

 Orbital symmetries:
       Occupied  (A) (A) (A) (A) (A) (A) (A) (A) (A) (A) (A) (A)
                 (A) (A) (A) (A) (A) (A) (A) (A) (A) (A) (A) (A)
                 (A) (A) (A) (A) (A) (A) (A) (A) (A) (A) (A) (A)
                 (A) (A) (A) (A) (A) (A) (A) (A) (A) (A) (A) (A)
                 (A) (A) (A) (A) (A) (A) (A) (A) (A) (A) (A) (A)
                 (A) (A) (A) (A) (A) (A) (A) (A) (A) (A) (A) (A)
                 (A) (A) (A) (A) (A) (A) (A) (A) (A) (A) (A) (A)
                 (A) (A) (A) (A) (A) (A) (A) (A) (A) (A) (A) (A)
                 (A) (A) (A) (A) (A) (A) (A) (A) (A) (A) (A) (A)
                 (A) (A) (A) (A) (A) (A) (A) (A) (A) (A) (A) (A)
                 (A) (A) (A) (A) (A)
       Virtual   (A) (A) (A) (A) (A) (A) (A) (A) (A) (A) (A) (A)
                 (A) (A) (A) (A) (A) (A) (A) (A) (A) (A) (A) (A)
                 (A) (A) (A) (A) (A) (A) (A) (A) (A) (A) (A) (A)
                 (A) (A) (A) (A) (A) (A) (A) (A) (A) (A) (A) (A)
                 (A) (A) (A) (A) (A) (A) (A) (A) (A) (A) (A) (A)
                 (A) (A) (A) (A) (A) (A) (A) (A) (A) (A) (A) (A)
                 (A) (A) (A) (A) (A) (A) (A) (A) (A) (A) (A) (A)
                 (A) (A) (A) (A) (A) (A) (A) (A) (A) (A) (A) (A)
                 (A) (A) (A) (A) (A) (A) (A) (A) (A) (A) (A) (A)
                 (A) (A) (A) (A) (A) (A) (A) (A) (A) (A) (A) (A)
                 (A) (A) (A) (A) (A) (A) (A) (A) (A) (A) (A) (A)
                 (A) (A) (A) (A) (A) (A) (A) (A) (A) (A) (A) (A)
                 (A) (A) (A) (A) (A) (A) (A) (A) (A) (A) (A) (A)
                 (A) (A) (A) (A) (A) (A) (A) (A) (A) (A) (A) (A)
                 (A) (A) (A) (A) (A) (A) (A) (A) (A) (A) (A) (A)
                 (A) (A) (A) (A) (A) (A) (A) (A) (A) (A) (A) (A)
                 (A) (A) (A) (A) (A) (A) (A) (A) (A) (A) (A) (A)
                 (A) (A) (A) (A) (A) (A) (A) (A) (A) (A) (A) (A)
                 (A) (A) (A) (A) (A) (A) (A) (A) (A) (A) (A) (A)
                 (A) (A) (A) (A) (A) (A) (A) (A) (A) (A) (A) (A)
                 (A) (A) (A) (A) (A) (A) (A) (A) (A) (A) (A) (A)
                 (A) (A) (A) (A) (A) (A) (A) (A) (A) (A) (A) (A)
                 (A) (A) (A) (A) (A) (A) (A) (A) (A) (A) (A) (A)
                 (A) (A) (A) (A) (A) (A) (A) (A) (A) (A) (A) (A)
                 (A) (A) (A) (A) (A) (A) (A) (A) (A) (A) (A) (A)
                 (A) (A) (A) (A) (A) (A) (A) (A) (A) (A) (A) (A)
                 (A) (A) (A) (A) (A) (A) (A) (A) (A) (A) (A) (A)
                 (A) (A) (A) (A) (A) (A) (A) (A) (A) (A) (A) (A)
                 (A) (A) (A) (A) (A) (A) (A) (A) (A) (A) (A) (A)
                 (A) (A) (A) (A) (A) (A) (A) (A) (A) (A) (A) (A)
                 (A) (A) (A) (A) (A) (A) (A) (A) (A) (A) (A) (A)
                 (A) (A) (A) (A) (A) (A) (A) (A) (A) (A) (A) (A)
                 (A) (A) (A) (A) (A) (A) (A) (A) (A) (A) (A) (A)
                 (A) (A) (A) (A) (A) (A) (A) (A) (A) (A) (A) (A)
                 (A) (A) (A) (A) (A) (A) (A) (A) (A) (A) (A) (A)
                 (A) (A) (A) (A) (A) (A) (A) (A) (A) (A) (A) (A)
                 (A) (A) (A) (A) (A) (A) (A) (A) (A) (A) (A) (A)
                 (A) (A) (A) (A) (A) (A) (A) (A) (A) (A) (A) (A)
                 (A) (A) (A) (A) (A) (A) (A) (A) (A) (A) (A) (A)
                 (A) (A) (A) (A) (A) (A) (A) (A) (A) (A) (A) (A)
                 (A) (A) (A) (A) (A) (A) (A) (A) (A) (A) (A) (A)
                 (A) (A) (A) (A) (A) (A) (A) (A) (A) (A) (A) (A)
                 (A) (A) (A) (A)
 The electronic state is 1-A.
 Alpha  occ. eigenvalues -- -101.84478 -19.41785 -19.34760 -19.31722 -14.58018
 Alpha  occ. eigenvalues --  -14.55242 -10.49978 -10.49047 -10.45457 -10.43627
 Alpha  occ. eigenvalues --  -10.43593 -10.42461 -10.41898 -10.41737 -10.41618
 Alpha  occ. eigenvalues --  -10.40971 -10.40844 -10.40745 -10.40377 -10.37661
 Alpha  occ. eigenvalues --  -10.37053 -10.37044 -10.36504 -10.36141 -10.35823
 Alpha  occ. eigenvalues --  -10.34726 -10.34065 -10.34031 -10.33960 -10.33918
 Alpha  occ. eigenvalues --   -9.71639  -7.42907  -7.41888  -7.41809  -3.46385
 Alpha  occ. eigenvalues --   -2.20761  -2.20489  -2.17497  -1.27077  -1.16658
 Alpha  occ. eigenvalues --   -1.15559  -1.13415  -1.07264  -1.01378  -0.97380
 Alpha  occ. eigenvalues --   -0.96912  -0.95945  -0.95698  -0.92437  -0.89523
 Alpha  occ. eigenvalues --   -0.88120  -0.87536  -0.84638  -0.82304  -0.81455
 Alpha  occ. eigenvalues --   -0.80464  -0.79876  -0.79621  -0.79383  -0.77560
 Alpha  occ. eigenvalues --   -0.76723  -0.72593  -0.71868  -0.70492  -0.68931
 Alpha  occ. eigenvalues --   -0.67313  -0.66118  -0.65500  -0.65344  -0.64704
 Alpha  occ. eigenvalues --   -0.63741  -0.61667  -0.60897  -0.60587  -0.59799
 Alpha  occ. eigenvalues --   -0.59610  -0.59209  -0.58590  -0.57649  -0.57497
 Alpha  occ. eigenvalues --   -0.57296  -0.56934  -0.56647  -0.55806  -0.54688
 Alpha  occ. eigenvalues --   -0.54419  -0.53905  -0.53701  -0.53419  -0.52994
 Alpha  occ. eigenvalues --   -0.52600  -0.52127  -0.51953  -0.51377  -0.51205
 Alpha  occ. eigenvalues --   -0.50991  -0.50849  -0.49876  -0.49396  -0.49033
 Alpha  occ. eigenvalues --   -0.48733  -0.48566  -0.48163  -0.47993  -0.47744
 Alpha  occ. eigenvalues --   -0.47536  -0.46987  -0.46621  -0.46158  -0.45168
 Alpha  occ. eigenvalues --   -0.45039  -0.44715  -0.44514  -0.44402  -0.43238
 Alpha  occ. eigenvalues --   -0.42588  -0.41593  -0.41410  -0.40584  -0.40323
 Alpha  occ. eigenvalues --   -0.39626  -0.38201  -0.37179  -0.35428  -0.34946
 Alpha virt. eigenvalues --   -0.19867  -0.18123  -0.16917  -0.16035  -0.13197
 Alpha virt. eigenvalues --   -0.12245  -0.11768  -0.11261  -0.10655  -0.10393
 Alpha virt. eigenvalues --   -0.10080  -0.10076  -0.09552  -0.09388  -0.09169
 Alpha virt. eigenvalues --   -0.08936  -0.08363  -0.08186  -0.08142  -0.07784
 Alpha virt. eigenvalues --   -0.07432  -0.07093  -0.06700  -0.06314  -0.05950
 Alpha virt. eigenvalues --   -0.05843  -0.05654  -0.05403  -0.05105  -0.05042
 Alpha virt. eigenvalues --   -0.04942  -0.04343  -0.04205  -0.03778  -0.03608
 Alpha virt. eigenvalues --   -0.03086  -0.02983  -0.02695  -0.02605  -0.02363
 Alpha virt. eigenvalues --   -0.02324  -0.01872  -0.01635  -0.01262  -0.01243
 Alpha virt. eigenvalues --   -0.00970  -0.00871  -0.00421  -0.00247  -0.00131
 Alpha virt. eigenvalues --    0.00068   0.00462   0.00678   0.01197   0.01455
 Alpha virt. eigenvalues --    0.01551   0.01759   0.02159   0.02203   0.02467
 Alpha virt. eigenvalues --    0.02790   0.02898   0.03304   0.03457   0.03680
 Alpha virt. eigenvalues --    0.03902   0.04098   0.04331   0.04471   0.04802
 Alpha virt. eigenvalues --    0.04944   0.05479   0.05567   0.05689   0.05999
 Alpha virt. eigenvalues --    0.06058   0.06217   0.06469   0.06779   0.06896
 Alpha virt. eigenvalues --    0.07081   0.07283   0.07576   0.07829   0.07915
 Alpha virt. eigenvalues --    0.08244   0.08547   0.08724   0.08992   0.09237
 Alpha virt. eigenvalues --    0.09307   0.09436   0.09487   0.09744   0.10057
 Alpha virt. eigenvalues --    0.10281   0.10523   0.10770   0.11017   0.11276
 Alpha virt. eigenvalues --    0.11436   0.11546   0.11684   0.11853   0.12005
 Alpha virt. eigenvalues --    0.12336   0.12468   0.12644   0.12799   0.12881
 Alpha virt. eigenvalues --    0.13100   0.13359   0.13462   0.13899   0.14036
 Alpha virt. eigenvalues --    0.14118   0.14364   0.14669   0.14794   0.15135
 Alpha virt. eigenvalues --    0.15332   0.15449   0.15537   0.15891   0.16201
 Alpha virt. eigenvalues --    0.16323   0.16514   0.16923   0.16958   0.17211
 Alpha virt. eigenvalues --    0.17433   0.17639   0.18043   0.18064   0.18655
 Alpha virt. eigenvalues --    0.18732   0.18832   0.19227   0.19449   0.19743
 Alpha virt. eigenvalues --    0.19941   0.20191   0.20299   0.20820   0.21017
 Alpha virt. eigenvalues --    0.21194   0.21496   0.22137   0.22339   0.22538
 Alpha virt. eigenvalues --    0.22868   0.23094   0.23441   0.23576   0.23820
 Alpha virt. eigenvalues --    0.24098   0.24715   0.24759   0.25064   0.25437
 Alpha virt. eigenvalues --    0.26116   0.26343   0.26360   0.26720   0.27150
 Alpha virt. eigenvalues --    0.27245   0.27587   0.28394   0.28549   0.28868
 Alpha virt. eigenvalues --    0.29283   0.29608   0.30123   0.30284   0.30734
 Alpha virt. eigenvalues --    0.31255   0.31882   0.32202   0.32494   0.33210
 Alpha virt. eigenvalues --    0.33505   0.33585   0.34574   0.34752   0.35659
 Alpha virt. eigenvalues --    0.35893   0.36066   0.37318   0.38466   0.38841
 Alpha virt. eigenvalues --    0.39503   0.40804   0.41791   0.43125   0.44334
 Alpha virt. eigenvalues --    0.45742   0.46305   0.47841   0.49663   0.52129
 Alpha virt. eigenvalues --    0.54874   0.55149   0.55615   0.56310   0.56701
 Alpha virt. eigenvalues --    0.57110   0.57414   0.58220   0.58650   0.59816
 Alpha virt. eigenvalues --    0.60241   0.60440   0.60623   0.61543   0.62105
 Alpha virt. eigenvalues --    0.62273   0.62915   0.63069   0.63418   0.63792
 Alpha virt. eigenvalues --    0.64244   0.64609   0.65184   0.65681   0.66119
 Alpha virt. eigenvalues --    0.66189   0.66506   0.67038   0.67486   0.67684
 Alpha virt. eigenvalues --    0.67863   0.68222   0.68914   0.69178   0.69410
 Alpha virt. eigenvalues --    0.70002   0.70612   0.71306   0.71588   0.72049
 Alpha virt. eigenvalues --    0.72792   0.73549   0.73843   0.74449   0.74497
 Alpha virt. eigenvalues --    0.75079   0.75770   0.76327   0.76859   0.77355
 Alpha virt. eigenvalues --    0.78243   0.78751   0.79022   0.79696   0.79981
 Alpha virt. eigenvalues --    0.80564   0.80675   0.81250   0.81857   0.82324
 Alpha virt. eigenvalues --    0.82568   0.82869   0.83131   0.83641   0.84643
 Alpha virt. eigenvalues --    0.84931   0.85260   0.86015   0.86762   0.87515
 Alpha virt. eigenvalues --    0.88054   0.88586   0.89428   0.89716   0.90116
 Alpha virt. eigenvalues --    0.90508   0.90870   0.91417   0.92012   0.92604
 Alpha virt. eigenvalues --    0.92979   0.93216   0.93237   0.93989   0.94357
 Alpha virt. eigenvalues --    0.95331   0.95614   0.95957   0.96790   0.97006
 Alpha virt. eigenvalues --    0.97928   0.98555   0.99453   0.99712   1.00198
 Alpha virt. eigenvalues --    1.00933   1.01466   1.01732   1.02116   1.02558
 Alpha virt. eigenvalues --    1.02876   1.03701   1.03955   1.04602   1.05239
 Alpha virt. eigenvalues --    1.05435   1.05926   1.06790   1.06912   1.07781
 Alpha virt. eigenvalues --    1.08219   1.09258   1.09625   1.10274   1.11180
 Alpha virt. eigenvalues --    1.11791   1.12535   1.12953   1.13472   1.13953
 Alpha virt. eigenvalues --    1.14709   1.16635   1.17095   1.18002   1.19210
 Alpha virt. eigenvalues --    1.20310   1.20726   1.22386   1.22622   1.23220
 Alpha virt. eigenvalues --    1.23554   1.24155   1.25514   1.26485   1.26938
 Alpha virt. eigenvalues --    1.27329   1.27737   1.28909   1.30689   1.31000
 Alpha virt. eigenvalues --    1.31421   1.32443   1.32913   1.33225   1.34273
 Alpha virt. eigenvalues --    1.34728   1.35636   1.36340   1.37214   1.38215
 Alpha virt. eigenvalues --    1.39059   1.40538   1.41738   1.41933   1.42563
 Alpha virt. eigenvalues --    1.43340   1.44709   1.44968   1.46318   1.48012
 Alpha virt. eigenvalues --    1.48711   1.49975   1.51042   1.51447   1.52782
 Alpha virt. eigenvalues --    1.53576   1.55943   1.57046   1.58017   1.59936
 Alpha virt. eigenvalues --    1.60314   1.60840   1.61633   1.61837   1.63789
 Alpha virt. eigenvalues --    1.65679   1.65768   1.66356   1.66838   1.67646
 Alpha virt. eigenvalues --    1.69272   1.70455   1.70815   1.71692   1.72409
 Alpha virt. eigenvalues --    1.72890   1.73340   1.74541   1.75011   1.76328
 Alpha virt. eigenvalues --    1.76627   1.77645   1.77863   1.78481   1.78919
 Alpha virt. eigenvalues --    1.79653   1.79947   1.81309   1.81966   1.82571
 Alpha virt. eigenvalues --    1.83312   1.83735   1.84387   1.84824   1.86281
 Alpha virt. eigenvalues --    1.86943   1.87631   1.88113   1.89146   1.90107
 Alpha virt. eigenvalues --    1.91469   1.91864   1.92741   1.93234   1.94480
 Alpha virt. eigenvalues --    1.95070   1.95289   1.96633   1.97287   1.98676
 Alpha virt. eigenvalues --    1.98873   1.99413   2.00312   2.01335   2.01516
 Alpha virt. eigenvalues --    2.02040   2.02801   2.03250   2.04091   2.05545
 Alpha virt. eigenvalues --    2.06094   2.06794   2.07056   2.09387   2.09774
 Alpha virt. eigenvalues --    2.10240   2.10583   2.11456   2.12025   2.12383
 Alpha virt. eigenvalues --    2.12905   2.13389   2.13992   2.14491   2.15091
 Alpha virt. eigenvalues --    2.15494   2.17070   2.17797   2.18264   2.18673
 Alpha virt. eigenvalues --    2.19786   2.20172   2.21961   2.22808   2.25213
 Alpha virt. eigenvalues --    2.26013   2.27138   2.27670   2.28145   2.30271
 Alpha virt. eigenvalues --    2.30763   2.33158   2.36082   2.36911   2.38076
 Alpha virt. eigenvalues --    2.38378   2.39023   2.39496   2.40701   2.42581
 Alpha virt. eigenvalues --    2.43876   2.44674   2.45985   2.48324   2.48665
 Alpha virt. eigenvalues --    2.49334   2.51837   2.52162   2.54120   2.54871
 Alpha virt. eigenvalues --    2.56277   2.57081   2.59667   2.60514   2.63357
 Alpha virt. eigenvalues --    2.65256   2.66805   2.68867   2.69492   2.70157
 Alpha virt. eigenvalues --    2.70533   2.72178   2.73900   2.75035   2.77702
 Alpha virt. eigenvalues --    2.79245   2.80551   2.81618   2.86098   2.91356
 Alpha virt. eigenvalues --    2.92109   2.98280   2.99849   3.05350   3.14511
 Alpha virt. eigenvalues --    3.15708   3.26924  21.03679
          Condensed to atoms (all electrons):
 Mulliken charges:
               1
     1  C   -0.040937
     2  C   -0.534640
     3  C   -0.171637
     4  C   -0.190647
     5  H    0.255292
     6  C   -0.425133
     7  N    0.221386
     8  H    0.249715
     9  H    0.261018
    10  Cl   0.493127
    11  C   -0.040208
    12  O   -0.237436
    13  N    0.014607
    14  C   -0.225752
    15  H    0.235316
    16  H    0.237685
    17  C    0.205156
    18  C   -0.968225
    19  H    0.197847
    20  Pd  -0.590179
    21  C   -0.415975
    22  C   -0.348660
    23  C    0.332622
    24  C   -0.676644
    25  C   -0.025690
    26  H    0.228466
    27  C   -0.258175
    28  H    0.239194
    29  H    0.217222
    30  C    0.281697
    31  C   -0.353848
    32  C   -0.542886
    33  H    0.168847
    34  H    0.213180
    35  C    0.003697
    36  O   -0.341504
    37  H    0.236349
    38  C   -0.262722
    39  H    0.256958
    40  H    0.268568
    41  H    0.214988
    42  O   -0.624519
    43  H    0.528706
    44  H    0.277723
    45  C   -0.655414
    46  H    0.256236
    47  H    0.273440
    48  H    0.236448
    49  H    0.258259
    50  H    0.214408
    51  H    0.226148
    52  H    0.238554
    53  H    0.253550
    54  C   -0.216852
    55  H    0.239336
    56  H    0.230002
    57  H    0.226281
    58  C   -0.290186
    59  H    0.225663
    60  H    0.242005
    61  H    0.217147
    62  C   -0.404731
    63  H    0.235541
    64  H    0.197615
    65  H    0.232601
 Sum of Mulliken charges =   1.00000
 Mulliken charges with hydrogens summed into heavy atoms:
               1
     1  C   -0.040937
     2  C   -0.273622
     3  C    0.078078
     4  C    0.064645
     6  C   -0.425133
     7  N    0.221386
    10  Cl   0.493127
    11  C   -0.040208
    12  O   -0.237436
    13  N    0.014607
    14  C    0.247248
    17  C    0.403004
    18  C   -0.968225
    20  Pd  -0.590179
    21  C    0.076129
    22  C    0.091895
    23  C    0.797437
    24  C   -0.676644
    25  C   -0.025690
    27  C    0.475964
    30  C    0.663724
    31  C   -0.353848
    32  C   -0.284626
    35  C    0.003697
    36  O   -0.341504
    38  C    0.477792
    42  O   -0.095813
    45  C    0.110711
    54  C    0.478768
    58  C    0.394628
    62  C    0.261025
 APT charges:
               1
     1  C    0.130075
     2  C   -0.148403
     3  C    0.181373
     4  C   -0.148632
     5  H    0.090699
     6  C    0.472103
     7  N   -0.453468
     8  H    0.072371
     9  H    0.102593
    10  Cl  -0.232754
    11  C    0.928974
    12  O   -0.804734
    13  N   -0.706456
    14  C    0.330690
    15  H    0.035418
    16  H   -0.004148
    17  C    0.255329
    18  C    0.095053
    19  H   -0.021438
    20  Pd   0.150616
    21  C   -0.060384
    22  C    0.123768
    23  C   -0.099902
    24  C    0.352979
    25  C   -0.432802
    26  H   -0.002066
    27  C   -0.082095
    28  H    0.023427
    29  H    0.009541
    30  C    0.537406
    31  C    0.256216
    32  C    0.222355
    33  H   -0.062898
    34  H   -0.041441
    35  C    1.033812
    36  O   -0.813902
    37  H   -0.005766
    38  C   -0.003355
    39  H    0.027433
    40  H    0.040992
    41  H    0.005228
    42  O   -0.711313
    43  H    0.291873
    44  H    0.033697
    45  C   -0.040979
    46  H    0.026146
    47  H    0.034709
    48  H    0.038079
    49  H   -0.000395
    50  H   -0.030307
    51  H   -0.028999
    52  H    0.013207
    53  H    0.018252
    54  C   -0.009488
    55  H    0.009524
    56  H   -0.016635
    57  H    0.004727
    58  C    0.013218
    59  H    0.000290
    60  H    0.001388
    61  H    0.001542
    62  C    0.010996
    63  H   -0.006722
    64  H   -0.002169
    65  H   -0.004445
 Sum of APT charges =   1.00000
 APT charges with hydrogens summed into heavy atoms:
               1
     1  C    0.130075
     2  C   -0.045809
     3  C    0.253744
     4  C   -0.057933
     6  C    0.472103
     7  N   -0.453468
    10  Cl  -0.232754
    11  C    0.928974
    12  O   -0.804734
    13  N   -0.706456
    14  C    0.361960
    17  C    0.233891
    18  C    0.095053
    20  Pd   0.150616
    21  C   -0.028926
    22  C    0.064462
    23  C   -0.107734
    24  C    0.352979
    25  C   -0.432802
    27  C   -0.015429
    30  C    0.433068
    31  C    0.256216
    32  C    0.221960
    35  C    1.033812
    36  O   -0.813902
    38  C    0.070297
    42  O   -0.419440
    45  C    0.057955
    54  C   -0.011873
    58  C    0.016438
    62  C   -0.002341
 Electronic spatial extent (au):  <R**2>=          13232.7566
 Charge=              1.0000 electrons
 Dipole moment (field-independent basis, Debye):
    X=             -5.3962    Y=              1.7816    Z=             -4.5646  Tot=              7.2889
 Quadrupole moment (field-independent basis, Debye-Ang):
   XX=           -169.7181   YY=           -152.6284   ZZ=           -194.0061
   XY=              5.0715   XZ=            -15.5090   YZ=             -7.8853
 Traceless Quadrupole moment (field-independent basis, Debye-Ang):
   XX=              2.3994   YY=             19.4892   ZZ=            -21.8886
   XY=              5.0715   XZ=            -15.5090   YZ=             -7.8853
 Octapole moment (field-independent basis, Debye-Ang**2):
  XXX=           -179.5247  YYY=             67.0865  ZZZ=             -9.8092  XYY=             11.4413
  XXY=            -16.3733  XXZ=            -76.6021  XZZ=            -29.4515  YZZ=            -22.8428
  YYZ=            -16.3204  XYZ=             22.8357
 Hexadecapole moment (field-independent basis, Debye-Ang**3):
 XXXX=          -9344.5076 YYYY=          -4650.3424 ZZZZ=          -2022.2308 XXXY=             50.5107
 XXXZ=           -383.8199 YYYX=            225.0193 YYYZ=           -281.4034 ZZZX=             -3.8306
 ZZZY=             13.6315 XXYY=          -2399.1420 XXZZ=          -1941.0928 YYZZ=          -1199.5465
 XXYZ=              4.9282 YYXZ=            -28.1403 ZZXY=              0.8058
 N-N= 3.970634105688D+03 E-N=-1.222770579863D+04  KE= 1.766280859851D+03
  Exact polarizability: 404.205  18.598 354.314  29.188 -10.255 276.752
 Approx polarizability: 566.052  27.776 521.496  81.578 -19.258 453.211
   1 Symmetry operations used in ECPInt.
 ECPInt:  NShTT=   25878 NPrTT=  135610 LenC2=   22940 LenP2D=   71518.
 LDataN:  DoStor=T MaxTD1= 7 Len=  274
 Calling FoFJK, ICntrl=    100127 FMM=F ISym2X=0 I1Cent= 0 IOpClX= 0 NMat=1 NMatS=1 NMatT=0.
 Defaulting to unpruned grid for atomic number  46.
 Defaulting to unpruned grid for atomic number  46.
 Defaulting to unpruned grid for atomic number  46.
 Defaulting to unpruned grid for atomic number  46.
 Defaulting to unpruned grid for atomic number  46.
 Defaulting to unpruned grid for atomic number  46.
 Defaulting to unpruned grid for atomic number  46.
 Defaulting to unpruned grid for atomic number  46.
 Defaulting to unpruned grid for atomic number  46.
 Defaulting to unpruned grid for atomic number  46.
 Defaulting to unpruned grid for atomic number  46.
 Defaulting to unpruned grid for atomic number  46.
 Defaulting to unpruned grid for atomic number  46.
 Defaulting to unpruned grid for atomic number  46.
 Defaulting to unpruned grid for atomic number  46.
 Defaulting to unpruned grid for atomic number  46.
 Defaulting to unpruned grid for atomic number  46.
 Defaulting to unpruned grid for atomic number  46.
 Defaulting to unpruned grid for atomic number  46.
 Defaulting to unpruned grid for atomic number  46.
 Defaulting to unpruned grid for atomic number  46.
 Defaulting to unpruned grid for atomic number  46.
 Defaulting to unpruned grid for atomic number  46.
 Defaulting to unpruned grid for atomic number  46.
 Defaulting to unpruned grid for atomic number  46.
 Defaulting to unpruned grid for atomic number  46.
 Defaulting to unpruned grid for atomic number  46.
 Defaulting to unpruned grid for atomic number  46.
 Full mass-weighted force constant matrix:
 Low frequencies --- -206.4206  -15.5511  -11.0943   -8.2497   -0.0032   -0.0013
 Low frequencies ---    0.0011   13.3808   32.7724
 ******    1 imaginary frequencies (negative Signs) ****** 
 Diagonal vibrational polarizability:
      113.9674332     106.6369521     119.9910011
 Harmonic frequencies (cm**-1), IR intensities (KM/Mole), Raman scattering
 activities (A**4/AMU), depolarization ratios for plane and unpolarized
 incident light, reduced masses (AMU), force constants (mDyne/A),
 and normal coordinates:
                           1         2         3         4         5
                           A         A         A         A         A
       Frequencies ---  -206.4204   11.8870   32.5935   42.7363   53.1064
    Reduced masses ---     7.3441    4.7533    5.8194    5.0418    6.9359
   Force constants ---     0.1844    0.0004    0.0036    0.0054    0.0115
    IR Intensities ---     4.3766    0.6476    0.6466    0.9768    1.7652
 Coord Atom Element:
   1     1     6         -0.00009   0.00688   0.04424   0.00196   0.04045
   2     1     6         -0.02867   0.01146  -0.04596  -0.00969  -0.00686
   3     1     6         -0.00448   0.05172  -0.03296  -0.04666   0.02857
   1     2     6         -0.00453  -0.00786   0.15094  -0.02209   0.01618
   2     2     6         -0.02489   0.03184  -0.09310   0.02529   0.00396
   3     2     6          0.00322   0.09936  -0.14743   0.03581   0.05401
   1     3     6         -0.00716  -0.01925   0.19506  -0.06638  -0.00021
   2     3     6         -0.02103   0.03477  -0.13722   0.04681   0.01866
   3     3     6          0.00117   0.13292  -0.17276   0.13997   0.06684
   1     4     6         -0.00952  -0.01181   0.12203  -0.08507   0.01223
   2     4     6         -0.02281   0.01244  -0.11833   0.02695   0.01392
   3     4     6          0.00102   0.11294  -0.07656   0.15216   0.04843
   1     5     1         -0.01465  -0.01803   0.14751  -0.12562   0.00491
   2     5     1         -0.02052   0.01001  -0.14166   0.04083   0.01894
   3     5     1          0.01065   0.13579  -0.09482   0.23519   0.05769
   1     6     6          0.00136   0.00635   0.01127  -0.05297   0.03791
   2     6     6         -0.02635  -0.00936  -0.06498  -0.01371   0.00032
   3     6     6         -0.00011   0.06102   0.04071   0.05530   0.01912
   1     7     7          0.00467   0.01281  -0.02033  -0.00948   0.04837
   2     7     7         -0.03646  -0.00722  -0.03429  -0.02590  -0.01068
   3     7     7         -0.00997   0.03343   0.05675  -0.04072   0.01554
   1     8     1         -0.01097  -0.03363   0.28780  -0.09154  -0.02240
   2     8     1         -0.01926   0.05223  -0.18029   0.07887   0.02927
   3     8     1          0.00514   0.17388  -0.27143   0.21514   0.09121
   1     9     1         -0.01057  -0.01181   0.20377  -0.01171   0.00594
   2     9     1         -0.02805   0.04391  -0.09184   0.04000  -0.00095
   3     9     1          0.00999   0.11074  -0.21926   0.02878   0.06580
   1    10    17         -0.00447   0.02433  -0.09063  -0.08343   0.07362
   2    10    17          0.01583  -0.04158  -0.04467  -0.05306   0.00400
   3    10    17          0.01295   0.02994   0.15031   0.06979  -0.01570
   1    11     6         -0.00661   0.01466   0.01380   0.01538   0.04233
   2    11     6         -0.02153   0.00719  -0.01274  -0.02080  -0.00528
   3    11     6         -0.00036   0.01323  -0.01660  -0.08698   0.01341
   1    12     8         -0.00215   0.03785   0.02582   0.00882   0.04774
   2    12     8         -0.00526   0.00106   0.00535  -0.02007   0.01400
   3    12     8         -0.00171  -0.03410  -0.02382  -0.07390   0.01584
   1    13     7         -0.01811  -0.00243  -0.01504   0.01791   0.02797
   2    13     7         -0.01883   0.00685  -0.00435  -0.01911  -0.01235
   3    13     7          0.00049   0.01305   0.00034  -0.08305  -0.00237
   1    14     6         -0.01377   0.05078  -0.00815  -0.00657   0.03549
   2    14     6          0.00493  -0.01088   0.03258  -0.00786   0.02537
   3    14     6         -0.00020  -0.08790   0.00100  -0.02565   0.00019
   1    15     1         -0.01019   0.03300   0.00758   0.00452   0.03863
   2    15     1          0.01482  -0.02389   0.06564   0.01174   0.03404
   3    15     1         -0.00115  -0.14918   0.01469  -0.00867  -0.00112
   1    16     1         -0.01869   0.12024  -0.04019  -0.03859   0.03525
   2    16     1          0.00286  -0.01214   0.02503  -0.03264   0.03348
   3    16     1          0.00041  -0.08631   0.00415  -0.01480  -0.00355
   1    17     6         -0.01951   0.00056  -0.02126   0.00802   0.02044
   2    17     6          0.00020  -0.00079   0.02078   0.01226   0.01001
   3    17     6         -0.00114  -0.05379   0.00022  -0.01778  -0.00579
   1    18     6         -0.01126  -0.07444  -0.01347   0.07870   0.02455
   2    18     6          0.00258   0.00295   0.02590   0.09221   0.01920
   3    18     6          0.00181  -0.08956   0.00240   0.00890  -0.00405
   1    19     1         -0.03251   0.02117  -0.03746  -0.03328   0.00179
   2    19     1          0.00053  -0.00297   0.02117   0.00120   0.01353
   3    19     1         -0.00083  -0.04846  -0.00027   0.02649  -0.01537
   1    20    46          0.07452   0.00321  -0.02496   0.00135   0.00894
   2    20    46         -0.01754   0.00403  -0.01343  -0.02573  -0.06322
   3    20    46         -0.01308   0.02466   0.03878  -0.05715   0.00839
   1    21     6          0.04130  -0.01653  -0.05162  -0.01103  -0.05833
   2    21     6         -0.00829   0.01715   0.13230   0.06973   0.13398
   3    21     6         -0.00680  -0.14020  -0.05902   0.02302  -0.01617
   1    22     6          0.10038  -0.06020  -0.10087  -0.02582  -0.10150
   2    22     6          0.07014   0.00668   0.12345   0.03729   0.00715
   3    22     6         -0.01466  -0.09460  -0.00440   0.01302  -0.07507
   1    23     6          0.00146  -0.05383  -0.07576   0.01898  -0.04005
   2    23     6          0.20901  -0.01125   0.08496  -0.02059  -0.09009
   3    23     6          0.04101  -0.04653   0.00395  -0.02235  -0.02959
   1    24     6          0.00003  -0.00230  -0.02102   0.00431  -0.00284
   2    24     6          0.42350   0.00778   0.02841  -0.02310  -0.04754
   3    24     6          0.10156  -0.02109  -0.00049  -0.02811   0.00074
   1    25     6          0.02202   0.04363   0.01444  -0.01013  -0.00055
   2    25     6          0.09140   0.01997   0.02579  -0.00704   0.02401
   3    25     6          0.02142  -0.05266  -0.02487  -0.01625   0.00476
   1    26     1          0.07166  -0.07474  -0.10852   0.00713  -0.07876
   2    26     1          0.26321  -0.02584   0.07173  -0.06599  -0.17493
   3    26     1         -0.01019  -0.02849   0.04326  -0.05973  -0.07130
   1    27     6         -0.11080   0.01246  -0.01396  -0.05306   0.03541
   2    27     6         -0.04921  -0.04831   0.00462  -0.09871  -0.02599
   3    27     6         -0.04793   0.06090   0.01173   0.04001  -0.04473
   1    28     1         -0.05939   0.01280  -0.03825  -0.08789   0.07596
   2    28     1         -0.05372  -0.06455   0.02348  -0.12015  -0.02967
   3    28     1         -0.01140   0.04758   0.00873  -0.00460  -0.01635
   1    29     1         -0.07999   0.01080  -0.02057  -0.05704   0.04324
   2    29     1          0.03657  -0.05305  -0.01527  -0.11112  -0.00048
   3    29     1         -0.04292   0.04593   0.03507   0.06600  -0.07447
   1    30     6         -0.11937   0.00597   0.03433   0.04454  -0.09364
   2    30     6         -0.03808   0.02437  -0.03044  -0.02082  -0.02596
   3    30     6          0.00211   0.08089   0.00511   0.06628  -0.06339
   1    31     6         -0.11217   0.00780   0.00816  -0.00239  -0.01685
   2    31     6         -0.15008  -0.00987  -0.00263  -0.04321  -0.05548
   3    31     6         -0.04849   0.06177   0.00207   0.01583  -0.02124
   1    32     6         -0.22557   0.00652   0.01673   0.00663  -0.02738
   2    32     6         -0.30052  -0.00668   0.02909  -0.01728  -0.08049
   3    32     6         -0.04087   0.06751  -0.02224  -0.02809   0.03730
   1    33     1         -0.12035   0.00707   0.02897   0.03214  -0.05943
   2    33     1         -0.05106   0.02455  -0.04149  -0.05935   0.09058
   3    33     1         -0.00478   0.06952   0.02490   0.07154  -0.05350
   1    34     1         -0.10456   0.00585   0.04506   0.05483  -0.06944
   2    34     1          0.01332   0.05578  -0.03911   0.03986  -0.11843
   3    34     1         -0.01762   0.07276   0.00367   0.04547  -0.04671
   1    35     6          0.04115   0.04568   0.00035  -0.01909  -0.04693
   2    35     6         -0.01036  -0.00036   0.06956   0.02534   0.18736
   3    35     6         -0.00051  -0.12023  -0.05511   0.00785   0.00291
   1    36     8          0.04758   0.09783   0.03291  -0.03087  -0.07701
   2    36     8         -0.02532  -0.03018   0.05231   0.01983   0.37691
   3    36     8         -0.00551  -0.15473  -0.07708   0.01614   0.01856
   1    37     1         -0.10567  -0.06836  -0.06698   0.08614   0.02273
   2    37     1          0.09600  -0.02091   0.11564  -0.02034  -0.12176
   3    37     1          0.13623  -0.04053  -0.02802  -0.00322   0.02436
   1    38     6         -0.01116   0.09742   0.06732  -0.01841   0.03484
   2    38     6          0.07546   0.04084  -0.02923  -0.02032   0.01546
   3    38     6          0.01006  -0.02757  -0.02781  -0.02354   0.01458
   1    39     1         -0.07638   0.02556   0.10761  -0.02870   0.16801
   2    39     1          0.01860  -0.02805  -0.01712  -0.03147   0.11895
   3    39     1         -0.03651  -0.09116  -0.06679  -0.03582   0.06676
   1    40     1          0.03232   0.24990   0.05443  -0.01092  -0.12259
   2    40     1          0.02569   0.00176  -0.04409  -0.03510   0.07518
   3    40     1          0.04801  -0.03042  -0.00947  -0.01107  -0.00311
   1    41     1         -0.02723   0.07586   0.07635  -0.02040   0.07039
   2    41     1          0.14184   0.16045  -0.07104  -0.00937  -0.16574
   3    41     1         -0.01503   0.05275  -0.00833  -0.02823  -0.00936
   1    42     8         -0.09816   0.00375   0.04975   0.08709  -0.24163
   2    42     8         -0.04835   0.01657  -0.02495  -0.02750  -0.02795
   3    42     8          0.06159   0.12438  -0.01613   0.13160  -0.13898
   1    43     1         -0.16836   0.00388   0.06539   0.11445  -0.27972
   2    43     1         -0.03356   0.03645  -0.04086  -0.01654  -0.00178
   3    43     1          0.01004   0.14113  -0.01502   0.16598  -0.15229
   1    44     1         -0.18455   0.01807  -0.00137  -0.05404   0.02256
   2    44     1         -0.02926  -0.05750   0.00871  -0.11271  -0.02092
   3    44     1         -0.09738   0.08672  -0.00035   0.07905  -0.05699
   1    45     6         -0.03085   0.01015   0.00815  -0.02295   0.01608
   2    45     6          0.03872  -0.03545   0.06617  -0.00962  -0.10049
   3    45     6         -0.00407   0.08447  -0.04880  -0.05626   0.08132
   1    46     1         -0.06696   0.00935   0.00964  -0.01729   0.00758
   2    46     1          0.22210  -0.01541   0.08771  -0.01565  -0.08365
   3    46     1          0.07333   0.07821  -0.06690  -0.08060   0.11542
   1    47     1          0.20129   0.02143   0.03240  -0.02687   0.02889
   2    47     1         -0.01070  -0.03922   0.06200  -0.00829  -0.10378
   3    47     1         -0.08688   0.12083  -0.06471  -0.06635   0.10077
   1    48     1         -0.06915   0.00332  -0.01982  -0.04440   0.04582
   2    48     1          0.04096  -0.07106   0.07975   0.00708  -0.12939
   3    48     1          0.00572   0.07149  -0.03700  -0.04508   0.06293
   1    49     1         -0.13938   0.00633   0.03774   0.04106  -0.06625
   2    49     1         -0.07425   0.02859   0.00756  -0.01230  -0.06117
   3    49     1          0.00349   0.07920  -0.03567  -0.03729   0.05572
[...]
 0000838,0.00000938,-0.00004547,-0.00002793,-0.00002382,0.00003237,0.00
 001253,-0.00000223,-0.00000011,-0.00000082,0.00000022,0.00004037,0.000
 07413,0.00000718,0.00001334,0.00000045,-0.00002999,-0.00000135,-0.0000
 2233,0.00002339,-0.00067492,0.00021748,-0.00041800,0.00011947,-0.00024
 334,0.00007384,0.00004063,0.00000875,-0.00011274,0.00056915,-0.0001264
 2,0.00023286,-0.00007698,0.00007332,0.00002132,-0.00005591,-0.00000887
 ,-0.00000599,0.00002973,0.00000271,0.00001826,-0.00000228,-0.00000204,
 0.00000212,-0.00000198,0.00000358,0.00000772,0.00000007,-0.00000177,-0
 .00000253,0.00000249,0.00000469,-0.00000037,0.00000532,-0.00000468,-0.
 00001012,0.00036576,-0.00045254,-0.00006737,-0.00002445,0.00012300,-0.
 00008104,-0.00000193,-0.00000160,0.00002240,0.00002009,0.00000469,0.00
 000539,0.00001300,-0.00000277,-0.00000511,-0.00000450,0.00000264,0.000
 00392,-0.00000170,0.00000089,-0.00000380,-0.00002069,0.00000500,-0.000
 00221,0.00000063,0.00000139,0.00000221,0.00000358,0.00000241,-0.000001
 38,-0.00000214,0.00000032,-0.00000046,0.00000137,0.00000185,0.00000013
 ,-0.00063834,0.00072974,0.00116913,0.00055167,-0.00034272,0.00000540,-
 0.00010595,-0.00012888,0.00000121,-0.00010405,0.00018506,-0.00026794,-
 0.00070652,0.00002175,-0.00051476,0.00004975,-0.00001364,-0.00014364,0
 .00010399,0.00041325,-0.00017565,-0.00014505,-0.00014644,-0.00004008,0
 .01213520,-0.04893670,-0.02680913,-0.01535868,0.05149374,-0.00005237,-
 0.00003759,-0.00000779,0.00006120,0.00005486,0.00000876,-0.00004099,-0
 .00002289,-0.00001298,0.00004551,-0.00002950,0.00003972,-0.00000007,-0
 .00000085,0.00000193,-0.00003320,0.00007322,-0.00007776,0.00003949,0.0
 0001735,0.00001878,0.00000475,0.00000319,-0.00000095,-0.00000441,-0.00
 002503,0.00000127,0.00003984,-0.00001433,0.00003829,-0.00009122,-0.000
 19299,0.00002328,0.00022160,0.00046521,-0.00007090,-0.00002077,-0.0000
 8200,0.00038554,0.00082869,-0.00085321,-0.00083751,-0.00004617,0.00002
 512,0.00007384,-0.00014709,0.00029397,-0.00028249,-0.00357082,0.003094
 55,-0.00157375,0.00949533,-0.00251706,-0.02079863,-0.00006968,-0.00007
 422,0.00034272,-0.00008985,0.00005060,-0.00006824,0.00000108,0.0000003
 7,-0.00000168,-0.00000401,-0.00000069,-0.00000837,0.00001943,0.0000107
 1,0.00001786,-0.00006189,-0.00001694,0.00000199,0.00008963,0.00002334,
 -0.00003056,-0.00000237,-0.00000433,0.00000364,-0.00003811,0.00000271,
 -0.00000839,0.00000410,0.00000184,0.00000181,0.00001668,0.00001256,0.0
 0001706,-0.00021196,0.00016094,-0.00006846,-0.00001083,-0.00001760,0.0
 0001827,-0.00000714,0.00005491,0.00001231,0.00008043,0.00000056,0.0000
 1948,0.00003912,-0.00001185,0.00000906,-0.00008300,-0.00001899,-0.0000
 1091,0.00004665,0.00000340,0.00003874,-0.00000083,-0.00000123,0.000001
 62,0.00000662,0.00000424,0.00000881,-0.00000076,-0.00000402,0.00000115
 ,0.00000259,0.00000346,0.00000103,0.00000149,-0.00000378,-0.00001054,0
 .00004083,-0.00012281,0.00003403,0.00000556,0.00001938,-0.00003303,0.0
 0001327,-0.00000428,0.00000053,0.00000380,-0.00000262,0.00000151,0.000
 00590,0.00000199,-0.00000002,-0.00000070,0.00000105,-0.00000249,-0.000
 00333,0.00000108,0.00000254,0.00000335,-0.00000439,-0.00000271,-0.0000
 0112,-0.00000091,0.00000036,0.00000304,0.00000338,-0.00000115,-0.00000
 178,-0.00000091,-0.00000041,0.00000189,0.00000194,0.00000105,0.0006718
 3,-0.00149628,0.00081545,-0.00017605,0.00058253,0.00056595,-0.00006239
 ,0.00010573,-0.00006257,-0.00020691,-0.00015863,0.00037452,0.00137309,
 -0.00032247,0.00075259,-0.00005162,0.00005702,-0.00008821,-0.00082593,
 -0.00007566,0.00010110,-0.00008462,0.00004731,0.00043349,0.10330409,-0
 .02585617,-0.26178485,-0.11066246,0.02587557,0.28345562,0.00001727,0.0
 0003985,0.00000138,-0.00000877,-0.00000658,-0.00001656,0.00000670,0.00
 000383,0.00000174,0.00000305,0.00000418,-0.00001313,0.00000230,0.00000
 014,-0.00000385,-0.00001213,0.00000013,-0.00001791,-0.00003222,0.00008
 000,0.00006190,-0.00000108,-0.00000040,0.00000074,0.00000048,0.0000021
 2,0.00000084,-0.00000486,0.00000019,0.00001132,-0.00013261,0.00010514,
 -0.00008900,0.00003453,-0.00009481,-0.00002640,-0.00023881,0.00005902,
 0.00030644,-0.00005448,-0.00002765,0.00007089,0.00001114,0.00005487,0.
 00001288,0.00001712,-0.00000546,0.00000687,0.00033533,-0.00039492,0.00
 040158,-0.00124567,0.01453101,0.00504718,0.00022008,-0.00022822,-0.000
 04151,0.00018144,-0.00009123,-0.00004025,0.00001045,0.00000130,-0.0000
 0043,-0.00000682,-0.00001773,-0.00002458,0.00005459,0.00001544,0.00002
 334,-0.00012487,-0.00004639,-0.00004945,0.00010142,0.00004353,-0.00000
 626,-0.00000302,-0.00000596,0.00000020,0.00011714,0.00014134,-0.000010
 50,0.00000353,0.00000088,-0.00006622,-0.00001318,-0.00000827,0.0000393
 0,-0.00087716,0.00101858,0.00068242,-0.00003864,-0.00044164,0.00002987
 ,0.00007252,0.00000731,-0.00015864,-0.00026785,0.00068009,0.00158687,-
 0.00036178,-0.00006079,-0.00025983,-0.00012929,-0.00003353,-0.00001753
 ,0.00006890,0.00001758,0.00004592,-0.00000322,-0.00000260,0.00000331,-
 0.00001530,0.00000882,0.00000643,-0.00001374,-0.00000024,0.00000266,0.
 00002360,0.00001027,0.00000421,0.00001694,-0.00003893,-0.00001781,0.00
 023503,-0.00061133,-0.00026852,0.00007271,0.00020292,-0.00000505,0.000
 00841,-0.00000921,0.00003570,0.00002831,0.00000844,0.00000274,0.000020
 80,-0.00000492,-0.00000738,-0.00000614,0.00000489,0.00000833,-0.000004
 41,0.00000168,-0.00000846,-0.00004643,0.00000409,-0.00000146,0.0000006
 5,0.00000849,0.00000549,0.00000820,0.00000804,-0.00000198,-0.00000454,
 0.00000197,-0.00000101,0.00000437,0.00000260,-0.00000086,-0.00165761,0
 .00169969,-0.00250651,0.00000284,-0.00026049,-0.00021742,0.00018674,0.
 00019599,0.00000069,0.00039053,0.00110009,0.00006802,0.00096728,0.0010
 2877,0.00072448,-0.00031870,-0.00015042,-0.00062028,-0.00019191,0.0001
 1025,0.00016395,0.00016612,-0.00026295,0.00016051,-0.04637593,-0.00977
 488,-0.00315608,0.00011827,0.01353611,0.00237724,0.04745547,0.00004702
 ,0.00002598,-0.00003673,-0.00002475,-0.00000688,-0.00000655,0.00002669
 ,0.00002705,0.00001090,-0.00001394,0.00003061,-0.00003477,0.00000463,0
 .00000055,-0.00000678,0.00002613,-0.00005182,0.00003051,-0.00004599,0.
 00009238,0.00006160,0.00000159,-0.00000054,-0.00000310,0.00000946,0.00
 000660,-0.00001841,-0.00003460,0.00001206,-0.00001831,0.00013775,0.000
 05681,-0.00011100,-0.00000080,0.00025225,-0.00007218,-0.00025534,0.000
 10109,0.00033776,0.00010564,0.00011064,0.00022685,-0.00006711,0.000008
 87,-0.00011823,-0.00001670,-0.00003432,0.00007690,0.00006388,-0.000322
 52,-0.00108808,-0.00106292,-0.01740300,-0.00571003,-0.00042765,0.00039
 944,0.00049916,0.00015691,-0.00010414,0.00003921,0.00000972,-0.0000002
 6,-0.00000027,-0.00000365,-0.00001884,-0.00001853,0.00003881,0.0000078
 4,0.00001449,-0.00007918,-0.00004555,-0.00004689,0.00004697,0.00002963
 ,0.00001065,-0.00000263,-0.00000431,-0.00000526,0.00005293,0.00013222,
 0.00000847,0.00002703,-0.00000043,-0.00004556,0.00000685,-0.00004597,0
 .00003131,-0.00017182,-0.00048342,-0.00141896,0.00018242,-0.00035818,-
 0.00000264,0.00008009,-0.00000139,-0.00014281,0.00184811,-0.00059698,-
 0.00054595,-0.00036547,0.00024158,0.00029194,-0.00007701,-0.00002164,-
 0.00001032,0.00003965,0.00001775,0.00002325,-0.00000513,-0.00000059,0.
 00000320,-0.00001366,0.00000134,-0.00000107,-0.00001148,0.00000211,0.0
 0000190,0.00001640,0.00000607,0.00000431,0.00001062,-0.00002521,-0.000
 00855,0.00062630,-0.00048432,-0.00017783,-0.00003678,0.00014328,-0.000
 02992,-0.00000471,-0.00000377,0.00004179,0.00002714,0.00000693,0.00000
 221,0.00001835,-0.00000715,-0.00000391,-0.00000675,0.00000511,0.000009
 06,-0.00000680,-0.00000050,-0.00000562,-0.00002904,0.00000687,0.000001
 82,0.00000144,0.00001086,0.00000610,0.00000574,0.00000541,-0.00000116,
 -0.00000384,0.00000350,-0.00000058,0.00000343,0.00000109,-0.00000159,0
 .00260489,-0.00105565,0.00410294,-0.00010878,0.00032892,-0.00000882,-0
 .00013059,0.00031690,-0.00002376,0.00013671,-0.00119607,-0.00031680,-0
 .00156132,0.00071943,-0.00079583,0.00041750,0.00062885,0.00020691,0.00
 016845,-0.00013866,0.00004956,-0.00004064,0.00035746,0.00014627,-0.009
 56936,-0.29429856,-0.06079586,-0.00058116,-0.00191207,0.00020450,0.006
 61807,0.32145987,0.00000037,0.00002167,0.00001962,-0.00001401,-0.00002
 301,-0.00000958,0.00000908,0.00000699,0.00000092,-0.00000810,0.0000017
 5,-0.00000864,0.00000040,0.00000079,0.00000004,0.00001719,-0.00000622,
 0.00001293,-0.00001841,-0.00001346,0.00001649,-0.00000151,-0.00000115,
 0.00000040,-0.00000206,0.00000607,0.00000309,-0.00000580,0.00000044,-0
 .00000315,-0.00010171,0.00013786,-0.00000819,0.00003867,-0.00026790,0.
 00005748,0.00002277,-0.00021129,0.00002163,-0.00019542,-0.00002430,0.0
 0014110,0.00003545,0.00001291,0.00004715,0.00001962,-0.00001799,0.0000
 0964,0.00022476,0.00089943,0.00119687,0.00110702,0.02136217,0.00491574
 ,-0.00003348,-0.00005778,-0.00048130,0.00002238,0.00004371,-0.00000980
 ,-0.00000184,-0.00000300,0.00000041,0.00000277,0.00000205,0.00000984,-
 0.00002315,-0.00001155,-0.00001432,0.00006020,0.00000077,0.00001157,-0
 .00006407,-0.00001111,0.00002171,0.00000168,0.00000413,-0.00000470,0.0
 0002064,-0.00002275,-0.00000725,-0.00001269,0.00000391,0.00000329,-0.0
 0000931,-0.00000081,-0.00003563,0.00101274,-0.00091099,-0.00046513,-0.
 00003515,0.00003944,-0.00010746,0.00000307,-0.00003049,0.00004594,0.00
 152646,-0.00124946,-0.00141924,-0.00038441,0.00007126,0.00013377,0.000
 07175,0.00001726,0.00000876,-0.00003921,-0.00000100,-0.00002881,0.0000
 0037,0.00000176,-0.00000047,-0.00000576,-0.00000264,-0.00001202,-0.000
 00689,0.00000408,0.00000227,0.00000655,-0.00000146,-0.00000059,0.00000
 276,-0.00001069,0.00000919,-0.00005750,0.00035457,-0.00010125,-0.00002
 397,-0.00000332,0.00016552,-0.00000557,0.00000137,0.00000093,-0.000015
 31,-0.00000175,-0.00000593,-0.00000752,-0.00000125,0.00000394,0.000000
 73,-0.00000107,0.00000281,0.00000202,-0.00000090,-0.00000116,0.0000028
 7,-0.00000079,0.00000657,0.00000032,0.00000115,-0.00000099,-0.00000377
 ,-0.00000290,0.00000158,0.00000150,0.00000098,0.00000075,-0.00000152,-
 0.00000174,-0.00000091,-0.00208922,0.00181038,-0.00279077,-0.00029088,
 0.00012155,0.00022581,0.00006220,-0.00009170,-0.00021657,-0.00027980,0
 .00120190,0.00065373,0.00095924,0.00022212,0.00086032,-0.00029144,-0.0
 0015534,0.00000396,-0.00003727,-0.00019096,-0.00006082,0.00033148,-0.0
 0000034,-0.00002807,-0.00288725,-0.06149789,-0.06155815,-0.00247511,-0
 .02727591,-0.00545298,0.00330408,0.06712586,0.06619395,-0.00001337,0.0
 0004554,0.00003414,-0.00000256,0.00000582,-0.00001417,0.00000032,0.000
 00247,-0.00001075,0.00001122,-0.00000534,0.00001431,0.00000063,0.00000
 400,-0.00000117,-0.00002574,0.00001457,-0.00006084,0.00009317,0.000058
 34,-0.00011121,-0.00000104,-0.00000007,0.00000046,-0.00000570,-0.00000
 170,0.00000160,0.00001336,-0.00001434,0.00002851,0.00003860,0.00062157
 ,-0.00014234,0.00077058,-0.00027017,0.00012392,0.00023171,-0.00053455,
 0.00210229,-0.00029959,-0.00024221,-0.00015928,0.00001468,-0.00010184,
 0.00008575,-0.00000202,0.00005382,-0.00006425,-0.00111442,-0.00012476,
 0.00048745,-0.01404154,-0.00522192,-0.00024287,0.00001409,0.00001279,0
 .00004992,-0.00031880,-0.00019260,0.00034677,-0.00000104,-0.00000564,0
 .00000479,0.00000052,0.00000534,0.00000587,-0.00003309,-0.00000840,-0.
 00000252,0.00001710,-0.00000467,-0.00006127,0.00000582,-0.00000540,0.0
 0003097,-0.00000359,0.00000486,-0.00000833,-0.00003181,0.00001036,-0.0
 0000888,0.00001304,-0.00000120,0.00001029,0.00000797,-0.00001131,0.000
 00450,-0.00027984,0.00000020,-0.00045430,0.00012213,0.00002892,0.00002
 670,-0.00000467,-0.00000864,0.00006926,0.00001408,-0.00014894,-0.00006
 080,-0.00026786,0.00082664,0.00056001,0.00005477,0.00003122,-0.0000074
 1,-0.00003395,-0.00000781,-0.00001322,-0.00000391,0.00000314,0.0000019
 9,-0.00010160,-0.00004634,-0.00001642,0.00001763,0.00001049,-0.0000026
 4,0.00002486,0.00000283,-0.00000463,0.00023420,0.00001460,-0.00008882,
 0.00006219,0.00016506,0.00019418,-0.00005625,-0.00004082,-0.00002467,0
 .00000595,0.00000832,0.00000180,-0.00000691,0.00000653,0.00000324,-0.0
 0000263,-0.00000257,0.00000217,-0.00000096,0.00000094,-0.00000132,-0.0
 0000188,-0.00000357,0.00000329,0.00000262,0.00000478,-0.00000179,0.000
 00084,0.00000154,-0.00000202,-0.00000436,-0.00000256,0.00000344,0.0000
 0169,0.00000126,0.00000066,-0.00000141,-0.00000171,-0.00000170,0.00039
 034,-0.00111877,0.00029663,-0.00015926,0.00003639,-0.00005326,0.000105
 17,0.00073706,-0.00001823,0.00025599,0.00012883,0.00001803,-0.00095260
 ,0.00313886,-0.00299735,0.00017656,-0.00011916,0.00006507,0.00048278,0
 .00003074,0.00003176,-0.00093343,-0.00044299,-0.00025804,-0.28787482,-
 0.07211582,-0.01930462,-0.01114000,-0.00372574,-0.00218369,0.00122691,
 0.00119225,0.00055798,0.31330909,0.00000200,-0.00005144,0.00005826,0.0
 0001555,0.00001635,0.00001067,-0.00001795,-0.00001542,-0.00000509,0.00
 000883,-0.00001136,0.00003169,-0.00000399,0.00000405,0.00000434,-0.000
 08603,0.00001088,-0.00005296,0.00016444,-0.00002320,-0.00024383,0.0000
 0150,-0.00000011,0.00000084,-0.00000237,-0.00000316,0.00000592,0.00004
 408,-0.00001291,0.00001879,0.00012507,-0.00002417,0.00017898,0.0000267
 8,-0.00006650,0.00003555,0.00005973,-0.00064465,0.00074350,0.00007470,
 -0.00009369,-0.00014519,0.00003441,0.00002296,-0.00001084,-0.00000358,
 0.00002738,-0.00003618,-0.00062923,0.00050361,-0.00047689,0.01730203,0
 .00471472,-0.00042290,-0.00004826,-0.00001491,0.00011955,-0.00010841,0
 .00030157,-0.00011248,-0.00001885,-0.00000732,0.00000070,0.00000091,0.
 00002636,0.00001928,-0.00004314,-0.00000987,-0.00000597,0.00006217,0.0
 0002392,0.00004156,-0.00005716,-0.00002964,-0.00004371,-0.00000215,0.0
 0000548,0.00000214,-0.00006685,-0.00005733,0.00000298,0.00000215,0.000
 00309,0.00003597,0.00001222,-0.00000039,-0.00001063,0.00005910,-0.0006
 7220,-0.00040999,0.00014560,0.00022547,0.00002113,-0.00003365,-0.00002
 490,0.00004652,-0.00033496,0.00020093,-0.00004541,0.00078353,-0.001008
 58,-0.00031714,0.00009774,0.00002660,0.00001298,-0.00005730,-0.0000239
 0,-0.00001441,-0.00000058,0.00000023,0.00000413,0.00008725,0.00002091,
 0.00002407,-0.00000789,-0.00000993,0.00000004,-0.00001307,-0.00000171,
 -0.00000257,-0.00001653,0.00002549,-0.00003162,-0.00005190,0.00039809,
 0.00023325,-0.00010896,-0.00007232,-0.00002177,0.00000291,0.00000776,-
 0.00000549,0.00000506,0.00001037,0.00001080,-0.00000917,-0.00000010,0.
 00000060,-0.00000521,-0.00000112,0.00000081,-0.00000140,-0.00000144,0.
 00000892,0.00003370,-0.00001627,-0.00000480,-0.00000104,-0.00001012,-0
 .00000671,-0.00000658,-0.00000792,0.00000324,0.00000342,-0.00000251,0.
 00000266,-0.00000528,-0.00000236,0.00000330,0.00059590,0.00143424,-0.0
 0024919,0.00007103,-0.00003867,-0.00007212,0.00003736,-0.00066840,0.00
 036689,-0.00024588,0.00016690,-0.00007142,0.00125686,-0.00187280,0.002
 23652,0.00014544,0.00025978,0.00025974,-0.00011427,-0.00023145,0.00000
 882,0.00093980,0.00067047,0.00042044,-0.07332098,-0.07044785,-0.006162
 30,0.00467803,0.00025340,0.00071565,-0.02877822,-0.00693459,-0.0013734
 3,0.07732151,0.07375424,0.00000917,0.00009204,0.00001018,-0.00006168,-
 0.00006200,-0.00002534,0.00004549,0.00002819,0.00002020,-0.00006305,0.
 00002828,-0.00006609,0.00000008,-0.00000382,0.00000091,0.00012519,-0.0
 0009134,0.00017531,-0.00007926,-0.00005451,0.00002636,-0.00000752,-0.0
 0000354,0.00000110,-0.00000207,0.00001609,0.00000303,-0.00007024,0.000
 02785,-0.00007212,-0.00022131,0.00097691,-0.00040589,0.00075940,-0.000
 36784,0.00020503,0.00005959,0.00003512,-0.00096368,-0.00028842,-0.0000
 0373,0.00020128,0.00000437,-0.00008805,0.00007991,0.00003808,-0.000010
 88,0.00003752,-0.00103853,-0.00090826,0.00039035,-0.02090489,-0.007625
 53,-0.00207810,0.00002745,0.00004087,0.00005083,0.00049162,0.00030173,
 -0.00053194,-0.00000178,-0.00000674,-0.00000135,0.00000292,0.00001796,
 0.00004431,-0.00011377,-0.00003893,-0.00005227,0.00028365,-0.00008527,
 0.00009693,-0.00021511,-0.00006899,0.00009358,0.00000237,0.00001909,-0
 .00001951,-0.00000717,0.00003778,-0.00001247,0.00000586,-0.00000779,-0
 .00000210,-0.00000074,-0.00001951,-0.00001422,0.00026270,-0.00026072,0
 .00007492,0.00005859,-0.00002546,-0.00011643,0.00007984,-0.00013197,0.
 00002672,-0.00013823,0.00022875,-0.00002426,0.00031961,-0.00058509,-0.
 00016671,0.00023491,0.00008371,0.00003579,-0.00011753,-0.00001927,-0.0
 0011146,-0.00000262,0.00000351,-0.00000122,-0.00004304,-0.00003022,-0.
 00005262,0.00001258,0.00001110,-0.00000969,-0.00002584,-0.00001555,-0.
 00000868,0.00008768,-0.00000502,0.00005446,-0.00008291,0.00022404,-0.0
 0002087,-0.00001109,-0.00002464,0.00003889,0.00000152,0.00000629,0.000
 01473,-0.00000088,0.00002582,-0.00000592,-0.00001129,-0.00000653,0.000
 00413,-0.00000834,-0.00000059,0.00000815,0.00000200,-0.00000596,-0.000
 00206,0.00000271,0.00000497,0.00001050,0.00000224,-0.00000241,-0.00000
 285,-0.00001343,-0.00001330,0.00000127,0.00000358,0.00000068,0.0000000
 5,-0.00000543,-0.00000332,-0.00000255,0.00062425,-0.00106574,0.0003985
 6,0.00013539,0.00011769,-0.00003338,0.00010108,0.00025474,0.00022660,0
 .00011931,-0.00013610,-0.00015724,-0.00150243,0.00313450,-0.00309757,0
 .00030024,0.00010608,-0.00002201,-0.00015830,0.00008134,0.00022871,-0.
 00149881,-0.00018647,0.00011678,-0.01802578,-0.00561305,-0.04676942,0.
 02684761,0.00894599,0.00367266,-0.00754462,-0.00193676,-0.00197584,0.0
 2121505,0.00466380,0.05047613\\0.00000024,0.00000125,0.00000668,0.0000
 0053,0.00000374,0.00000998,0.00000033,0.00000249,0.00001416,-0.0000007
 5,-0.00000019,0.00001487,-0.00000139,-0.00000032,0.00001755,-0.0000016
 4,-0.00000082,0.00001029,-0.00000057,-0.00000023,0.00000689,0.00000078
 ,0.00000389,0.00001711,0.00000206,0.00000466,0.00001010,-0.00000302,-0
 .00000432,0.00001108,0.00000095,0.00000214,0.00000236,0.00000124,0.000
 00310,0.00000199,-0.00000024,-0.00000017,0.,0.00000232,0.00000266,-0.0
 0000326,0.00000100,0.00000236,-0.00000268,0.00000319,0.00000607,-0.000
 00322,0.00000034,0.00000079,-0.00000441,-0.00000200,-0.00000454,-0.000
 00527,0.00000092,0.00000046,-0.00000739,0.00000018,0.00000078,-0.00000
 079,0.00000111,0.00000274,0.00000861,0.00000159,0.00000460,0.00000817,
 0.00000255,0.00000498,0.00000448,-0.00000009,0.00000036,0.00000223,-0.
 00000094,-0.00000152,0.00000325,0.00000244,0.00000611,0.00000484,0.000
 00352,0.00000572,-0.00000742,0.00000389,0.00000747,-0.00000446,0.00000
 321,0.00000521,-0.00000778,0.00000035,-0.00000179,-0.00001012,0.000000
 62,0.00000152,-0.00000659,0.00000156,0.00000110,-0.00000390,-0.0000004
 3,-0.00000157,-0.00001007,-0.00000152,-0.00000450,-0.00000768,-0.00000
 173,-0.00000148,0.00000550,-0.00000180,-0.00000442,0.00000801,0.000003
 44,0.00000680,0.00000267,-0.00000299,-0.00000528,0.00000166,-0.0000032
 4,-0.00000687,-0.00000083,-0.00000462,-0.00000860,0.00000340,-0.000002
 84,-0.00000616,-0.00000130,0.00000021,-0.00000051,-0.00001306,-0.00000
 015,-0.00000284,-0.00001542,0.00000398,0.00000645,-0.00001036,0.000003
 01,0.00000479,-0.00000496,0.00000225,0.00000427,-0.00000320,0.00000284
 ,0.00000468,-0.00000859,0.00000413,0.00000771,-0.00000434,-0.00000022,
 -0.00000095,-0.00000545,0.00000097,0.00000337,0.00001114,0.00000286,0.
 00000762,0.00001047,0.00000172,0.00000392,0.00000588,0.00000012,0.0000
 0238,0.00001097,-0.00000331,-0.00000501,-0.00000036,-0.00000391,-0.000
 00845,-0.00000167,-0.00000275,-0.00000553,0.00000188,-0.00000176,-0.00
 000400,0.00000057,-0.00000090,-0.00000356,-0.00000805,-0.00000077,-0.0
 0000354,-0.00001143,-0.00000296,-0.00000687,-0.00000910,-0.00000075,-0
 .00000227,-0.00000794,-0.00000310,-0.00000750,-0.00000595,-0.00000442,
 -0.00000978,-0.00000665,-0.00000252,-0.00000577,-0.00000920,-0.0000030
 9,-0.00000685,-0.00000386\\\@


 In the race for quality, there is no finish line.
                               -- David T. Kearns
 Job cpu time:       2 days 21 hours 19 minutes 13.1 seconds.
 File lengths (MBytes):  RWF=   7520 Int=      0 D2E=      0 Chk=     25 Scr=      1
 Normal termination of Gaussian 09 at Fri Feb  2 16:16:16 2018.
