 Entering Gaussian System, Link 0=g09
 Initial command:
 /sw/group/lms/sw/g09_D01/g09/l1.exe "/work/job.575701/Gau-3941.inp" -scrdir="/work/job.575701/"
 Default is to use a total of  28 processors:
                               28 via shared-memory
                                1 via Linda
 Entering Link 1 = /sw/group/lms/sw/g09_D01/g09/l1.exe PID=      3942.
  
 Copyright (c) 1988,1990,1992,1993,1995,1998,2003,2009,2013,
            Gaussian, Inc.  All Rights Reserved.
  
 This is part of the Gaussian(R) 09 program.  It is based on
 the Gaussian(R) 03 system (copyright 2003, Gaussian, Inc.),
 the Gaussian(R) 98 system (copyright 1998, Gaussian, Inc.),
 the Gaussian(R) 94 system (copyright 1995, Gaussian, Inc.),
 the Gaussian 92(TM) system (copyright 1992, Gaussian, Inc.),
 the Gaussian 90(TM) system (copyright 1990, Gaussian, Inc.),
 the Gaussian 88(TM) system (copyright 1988, Gaussian, Inc.),
 the Gaussian 86(TM) system (copyright 1986, Carnegie Mellon
 University), and the Gaussian 82(TM) system (copyright 1983,
 Carnegie Mellon University). Gaussian is a federally registered
 trademark of Gaussian, Inc.
  
 This software contains proprietary and confidential information,
 including trade secrets, belonging to Gaussian, Inc.
  
 This software is provided under written license and may be
 used, copied, transmitted, or stored only in accord with that
 written license.
  
 The following legend is applicable only to US Government
 contracts under FAR:
  
                    RESTRICTED RIGHTS LEGEND
  
 Use, reproduction and disclosure by the US Government is
 subject to restrictions as set forth in subparagraphs (a)
 and (c) of the Commercial Computer Software - Restricted
 Rights clause in FAR 52.227-19.
  
 Gaussian, Inc.
 340 Quinnipiac St., Bldg. 40, Wallingford CT 06492
  
  
 ---------------------------------------------------------------
 Warning -- This program may not be used in any manner that
 competes with the business of Gaussian, Inc. or will provide
 assistance to any competitor of Gaussian, Inc.  The licensee
 of this program is prohibited from giving any competitor of
 Gaussian, Inc. access to this program.  By using this program,
 the user acknowledges that Gaussian, Inc. is engaged in the
 business of creating and licensing software in the field of
 computational chemistry and represents and warrants to the
 licensee that it is not a competitor of Gaussian, Inc. and that
 it will not use this program in any manner prohibited above.
 ---------------------------------------------------------------
  

 Cite this work as:
 Gaussian 09, Revision D.01,
 M. J. Frisch, G. W. Trucks, H. B. Schlegel, G. E. Scuseria, 
 M. A. Robb, J. R. Cheeseman, G. Scalmani, V. Barone, B. Mennucci, 
 G. A. Petersson, H. Nakatsuji, M. Caricato, X. Li, H. P. Hratchian, 
 A. F. Izmaylov, J. Bloino, G. Zheng, J. L. Sonnenberg, M. Hada, 
 M. Ehara, K. Toyota, R. Fukuda, J. Hasegawa, M. Ishida, T. Nakajima, 
 Y. Honda, O. Kitao, H. Nakai, T. Vreven, J. A. Montgomery, Jr., 
 J. E. Peralta, F. Ogliaro, M. Bearpark, J. J. Heyd, E. Brothers, 
 K. N. Kudin, V. N. Staroverov, T. Keith, R. Kobayashi, J. Normand, 
 K. Raghavachari, A. Rendell, J. C. Burant, S. S. Iyengar, J. Tomasi, 
 M. Cossi, N. Rega, J. M. Millam, M. Klene, J. E. Knox, J. B. Cross, 
 V. Bakken, C. Adamo, J. Jaramillo, R. Gomperts, R. E. Stratmann, 
 O. Yazyev, A. J. Austin, R. Cammi, C. Pomelli, J. W. Ochterski, 
 R. L. Martin, K. Morokuma, V. G. Zakrzewski, G. A. Voth, 
 P. Salvador, J. J. Dannenberg, S. Dapprich, A. D. Daniels, 
 O. Farkas, J. B. Foresman, J. V. Ortiz, J. Cioslowski, 
 and D. J. Fox, Gaussian, Inc., Wallingford CT, 2013.
 
 ******************************************
 Gaussian 09:  ES64L-G09RevD.01 24-Apr-2013
                 2-Feb-2018 
 ******************************************
 %chk=Sub-10-Cl-18-tBu.R.1_2a_r_up.Cf1.chk
 ---------------------------------------------------------
 #M06/genecp denfit freq=(hpmodes,noraman,temperature=298)
 ---------------------------------------------------------
 1/10=4,30=1,38=1,112=298000/1,3;
 2/12=2,17=6,18=5,40=1/2;
 3/5=7,11=2,16=1,17=8,25=1,30=1,71=2,74=-54,82=47,140=1/1,2,3;
 4//1;
 5/5=2,38=5,98=1/2;
 8/6=4,10=90,11=11/1;
 11/6=1,8=1,9=11,15=111,16=1/1,2,10;
 10/6=1/2;
 6/7=2,8=2,9=2,10=2,18=1,28=1/1;
 7/8=11,10=1,25=1/1,2,3,16;
 1/10=4,30=1/3;
 99//99;
 ---------------------------------------------------
 Sub-10-Cl-18-tBu/R/1_2a_r_up/Cf1 step 4 (attempt 1)
 ---------------------------------------------------
 Symbolic Z-matrix:
 Charge =  1 Multiplicity = 1
 C                    0    -0.89162   2.34598  -0.67287 
 C                    0    -0.88081   3.57749  -1.30501 
 C                    0     0.21503   4.41589  -1.0893 
 C                    0     1.21194   4.01203  -0.21969 
 H                    0     2.06496   4.64292   0.01672 
 C                    0     1.09247   2.75218   0.37995 
 N                    0     0.10261   1.91073   0.13832 
 H                    0     0.27361   5.38663  -1.5767 
 H                    0    -1.71319   3.87127  -1.9395 
 Cl                   0     2.2763    2.29805   1.55715 
 C                    0    -2.04506   1.44103  -0.75029 
 O                    0    -3.17965   1.91304  -1.25339 
 N                    0    -2.04627   0.24978  -0.26877 
 C                    0    -4.11341   0.80162  -1.20009 
 H                    0    -5.07725   1.20289  -0.87664 
 H                    0    -4.20539   0.4055   -2.21887 
 C                    0    -3.4571   -0.18569  -0.22345 
 C                    0    -4.01494  -0.14888   1.2224 
 H                    0    -3.53874  -1.21902  -0.59484 
 Pd                   0     0.00414  -0.48849  -0.03277 
 C                    0     4.67523  -0.58107   1.35593 
 C                    0     2.89864  -0.20576  -0.48895 
 C                    0     2.3349   -1.36004   1.66202 
 C                    0     2.01338  -0.88816   0.27234 
 C                    0     3.80559  -1.76176   1.75265 
 H                    0     2.13262  -0.53801   2.37081 
 H                    0     4.0487   -2.09639   2.76932 
 C                    0    -0.95201  -2.30294  -2.17972 
 H                    0    -0.4706   -1.56839  -2.83583 
 H                    0    -2.01045  -2.03155  -2.08116 
 C                    0    -0.29213  -2.41776  -0.83195 
 C                    0     1.13105  -2.5091   -0.74639 
 C                    0    -1.05261  -3.25551   0.16989 
 H                    0    -2.11306  -2.95417   0.19199 
 H                    0    -0.63979  -3.12942   1.18701 
 H                    0     5.73898  -0.83796   1.27974 
 C                    0     4.26602   0.06859   0.05464 
 O                    0     5.01408   0.82256  -0.54186 
 C                    0     2.62934   0.39514  -1.83056 
 H                    0     1.60695   0.19597  -2.17679 
 H                    0     2.76435   1.4859   -1.77508 
 H                    0     3.35082   0.0492   -2.58307 
 H                    0     4.60959   0.20611   2.12721 
 H                    0     3.9921   -2.61682   1.08201 
 H                    0     1.67797  -2.18465   1.97183 
 H                    0     1.47612  -3.09246   0.11186 
 H                    0    -0.91491  -3.28212  -2.68313 
 C                    0     1.97196  -2.69358  -1.96949 
 H                    0     1.7717   -1.96883  -2.76388 
 H                    0     3.04139  -2.66959  -1.73641 
 H                    0     1.72716  -3.69045  -2.37028 
 O                    0    -0.90517  -4.58743  -0.28315 
 H                    0    -1.43396  -5.18799   0.26121 
 C                    0    -3.94538   1.25749   1.81724 
 H                    0    -4.37766   1.25261   2.82655 
 H                    0    -2.90828   1.61075   1.91372 
 H                    0    -4.51069   1.99554   1.23128 
 C                    0    -5.46769  -0.62683   1.18576 
 H                    0    -5.55271  -1.63      0.74211 
 H                    0    -5.86906  -0.68444   2.2063 
 H                    0    -6.12654   0.04858   0.62291 
 C                    0    -3.21344  -1.10203   2.10775 
 H                    0    -3.59015  -1.06215   3.13864 
 H                    0    -3.31136  -2.14328   1.7675 
 H                    0    -2.14554  -0.84144   2.13291 
 

 GradGradGradGradGradGradGradGradGradGradGradGradGradGradGradGradGradGrad
 Berny optimization.
 Initialization pass.
 Trust Radius=3.00D-01 FncErr=1.00D-07 GrdErr=1.00D-07
 Number of steps in this run=      2 maximum allowed number of steps=      2.
 GradGradGradGradGradGradGradGradGradGradGradGradGradGradGradGradGradGrad

 Stoichiometry    C24H34ClN2O3Pd(1+)
 Framework group  C1[X(C24H34ClN2O3Pd)]
 Deg. of freedom   189
 Full point group                 C1      NOp   1
 Largest Abelian subgroup         C1      NOp   1
 Largest concise Abelian subgroup C1      NOp   1
                         Standard orientation:                         
 ---------------------------------------------------------------------
 Center     Atomic      Atomic             Coordinates (Angstroms)
 Number     Number       Type             X           Y           Z
 ---------------------------------------------------------------------
      1          6           0       -0.891620    2.345983   -0.672868
      2          6           0       -0.880807    3.577491   -1.305012
      3          6           0        0.215031    4.415890   -1.089301
      4          6           0        1.211939    4.012033   -0.219694
      5          1           0        2.064962    4.642925    0.016722
      6          6           0        1.092467    2.752176    0.379946
      7          7           0        0.102609    1.910734    0.138319
      8          1           0        0.273610    5.386634   -1.576703
      9          1           0       -1.713189    3.871266   -1.939496
     10         17           0        2.276300    2.298051    1.557153
     11          6           0       -2.045057    1.441034   -0.750286
     12          8           0       -3.179647    1.913037   -1.253390
     13          7           0       -2.046269    0.249777   -0.268771
     14          6           0       -4.113409    0.801616   -1.200087
     15          1           0       -5.077249    1.202889   -0.876636
     16          1           0       -4.205391    0.405495   -2.218868
     17          6           0       -3.457101   -0.185686   -0.223446
     18          6           0       -4.014935   -0.148883    1.222398
     19          1           0       -3.538741   -1.219020   -0.594843
     20         46           0        0.004141   -0.488491   -0.032771
     21          6           0        4.675229   -0.581068    1.355928
     22          6           0        2.898643   -0.205764   -0.488952
     23          6           0        2.334899   -1.360035    1.662015
     24          6           0        2.013381   -0.888158    0.272341
     25          6           0        3.805592   -1.761759    1.752645
     26          1           0        2.132623   -0.538013    2.370807
     27          1           0        4.048696   -2.096385    2.769324
     28          6           0       -0.952007   -2.302944   -2.179721
     29          1           0       -0.470603   -1.568387   -2.835827
     30          1           0       -2.010446   -2.031550   -2.081162
     31          6           0       -0.292134   -2.417755   -0.831951
     32          6           0        1.131051   -2.509099   -0.746390
     33          6           0       -1.052608   -3.255507    0.169888
     34          1           0       -2.113061   -2.954172    0.191991
     35          1           0       -0.639790   -3.129417    1.187008
     36          1           0        5.738979   -0.837958    1.279740
     37          6           0        4.266025    0.068593    0.054640
     38          8           0        5.014076    0.822561   -0.541856
     39          6           0        2.629341    0.395138   -1.830560
     40          1           0        1.606954    0.195972   -2.176785
     41          1           0        2.764348    1.485895   -1.775082
     42          1           0        3.350816    0.049195   -2.583066
     43          1           0        4.609585    0.206111    2.127214
     44          1           0        3.992098   -2.616816    1.082007
     45          1           0        1.677973   -2.184650    1.971833
     46          1           0        1.476124   -3.092456    0.111860
     47          1           0       -0.914907   -3.282124   -2.683131
     48          6           0        1.971958   -2.693583   -1.969489
     49          1           0        1.771701   -1.968826   -2.763878
     50          1           0        3.041392   -2.669591   -1.736414
     51          1           0        1.727162   -3.690454   -2.370284
     52          8           0       -0.905166   -4.587429   -0.283152
     53          1           0       -1.433958   -5.187988    0.261205
     54          6           0       -3.945375    1.257487    1.817243
     55          1           0       -4.377662    1.252607    2.826553
     56          1           0       -2.908280    1.610754    1.913717
     57          1           0       -4.510693    1.995538    1.231284
     58          6           0       -5.467695   -0.626831    1.185758
     59          1           0       -5.552705   -1.629997    0.742110
     60          1           0       -5.869058   -0.684441    2.206296
     61          1           0       -6.126537    0.048576    0.622905
     62          6           0       -3.213436   -1.102032    2.107747
     63          1           0       -3.590152   -1.062150    3.138638
     64          1           0       -3.311356   -2.143278    1.767503
     65          1           0       -2.145542   -0.841442    2.132906
 ---------------------------------------------------------------------
 Rotational constants (GHZ):      0.1759467      0.1189036      0.0880899
 General basis read from cards:  (5D, 7F)
 ======================================================================================================
                                       Pseudopotential Parameters
 ======================================================================================================
  Center     Atomic      Valence      Angular      Power
  Number     Number     Electrons     Momentum     of R      Exponent        Coefficient   SO-Coeffient
 ======================================================================================================
    1          6
                                   No pseudopotential on this center.
    2          6
                                   No pseudopotential on this center.
    3          6
                                   No pseudopotential on this center.
    4          6
                                   No pseudopotential on this center.
    5          1
                                   No pseudopotential on this center.
    6          6
                                   No pseudopotential on this center.
    7          7
                                   No pseudopotential on this center.
    8          1
                                   No pseudopotential on this center.
    9          1
                                   No pseudopotential on this center.
   10         17
                                   No pseudopotential on this center.
   11          6
                                   No pseudopotential on this center.
   12          8
                                   No pseudopotential on this center.
   13          7
                                   No pseudopotential on this center.
   14          6
                                   No pseudopotential on this center.
   15          1
                                   No pseudopotential on this center.
   16          1
                                   No pseudopotential on this center.
   17          6
                                   No pseudopotential on this center.
   18          6
                                   No pseudopotential on this center.
   19          1
                                   No pseudopotential on this center.
   20         46           18
                                      F and up 
                                                     0      598.3336444       -0.05631770    0.00000000
                                                     1      162.4298290      -20.12880360    0.00000000
                                                     2       51.5714771     -105.81979230    0.00000000
                                                     2       16.4888260      -42.57333450    0.00000000
                                                     2        5.8287656       -3.61650860    0.00000000
                                      S - F
                                                     0       73.3806304        3.00036510    0.00000000
                                                     1       14.7550438       32.43500930    0.00000000
                                                     2       17.8350204      459.08303830    0.00000000
                                                     2       12.7111477     -868.06290290    0.00000000
                                                     2        9.3292063      514.47260980    0.00000000
                                      P - F
                                                     0       55.6689877        4.95930990    0.00000000
                                                     1       64.2337771       21.17110290    0.00000000
                                                     2       17.6254952      605.05600920    0.00000000
                                                     2       11.9058155     -726.96418460    0.00000000
                                                     2        8.5100832      396.32748830    0.00000000
                                      D - F
                                                     0       49.9994728        3.05087450    0.00000000
                                                     1       39.7477547       22.25065800    0.00000000
                                                     2       11.4321366      674.83576980    0.00000000
                                                     2        9.1790080    -1040.85540480    0.00000000
                                                     2        7.5624429      505.93751470    0.00000000
   21          6
                                   No pseudopotential on this center.
   22          6
                                   No pseudopotential on this center.
   23          6
                                   No pseudopotential on this center.
   24          6
                                   No pseudopotential on this center.
   25          6
                                   No pseudopotential on this center.
   26          1
                                   No pseudopotential on this center.
   27          1
                                   No pseudopotential on this center.
   28          6
                                   No pseudopotential on this center.
   29          1
                                   No pseudopotential on this center.
   30          1
                                   No pseudopotential on this center.
   31          6
                                   No pseudopotential on this center.
   32          6
                                   No pseudopotential on this center.
   33          6
                                   No pseudopotential on this center.
   34          1
                                   No pseudopotential on this center.
   35          1
                                   No pseudopotential on this center.
   36          1
                                   No pseudopotential on this center.
   37          6
                                   No pseudopotential on this center.
   38          8
                                   No pseudopotential on this center.
   39          6
                                   No pseudopotential on this center.
   40          1
                                   No pseudopotential on this center.
   41          1
                                   No pseudopotential on this center.
   42          1
                                   No pseudopotential on this center.
   43          1
                                   No pseudopotential on this center.
   44          1
                                   No pseudopotential on this center.
   45          1
                                   No pseudopotential on this center.
   46          1
                                   No pseudopotential on this center.
   47          1
                                   No pseudopotential on this center.
   48          6
                                   No pseudopotential on this center.
   49          1
                                   No pseudopotential on this center.
   50          1
                                   No pseudopotential on this center.
   51          1
                                   No pseudopotential on this center.
   52          8
                                   No pseudopotential on this center.
   53          1
                                   No pseudopotential on this center.
   54          6
                                   No pseudopotential on this center.
   55          1
                                   No pseudopotential on this center.
   56          1
                                   No pseudopotential on this center.
   57          1
                                   No pseudopotential on this center.
   58          6
                                   No pseudopotential on this center.
   59          1
                                   No pseudopotential on this center.
   60          1
                                   No pseudopotential on this center.
   61          1
                                   No pseudopotential on this center.
   62          6
                                   No pseudopotential on this center.
   63          1
                                   No pseudopotential on this center.
   64          1
                                   No pseudopotential on this center.
   65          1
                                   No pseudopotential on this center.
 ======================================================================================================
 There are   666 symmetry adapted cartesian basis functions of A   symmetry.
 There are   634 symmetry adapted basis functions of A   symmetry.
   634 basis functions,  1169 primitive gaussians,   666 cartesian basis functions
   125 alpha electrons      125 beta electrons
       nuclear repulsion energy      3985.7996923667 Hartrees.
 NAtoms=   65 NActive=   65 NUniq=   65 SFac= 1.00D+00 NAtFMM=   60 NAOKFM=T Big=T
 Integral buffers will be    131072 words long.
 Raffenetti 2 integral format.
 Two-electron integral symmetry is turned on.
 Standard density basis: Auto (5D, 7F)
  2775 Density fitting functions
 There are  2775 symmetry adapted density basis functions of A   symmetry.
 One-electron integrals computed using PRISM.
   1 Symmetry operations used in ECPInt.
 ECPInt:  NShTT=   25878 NPrTT=  135610 LenC2=   22973 LenP2D=   71727.
 LDataN:  DoStor=T MaxTD1= 5 Len=  102
 NBasis=   634 RedAO= T EigKep=  1.03D-06  NBF=   634
 NBsUse=   633 1.00D-06 EigRej=  3.54D-07 NBFU=   633
 Defaulting to unpruned grid for atomic number  46.
 ExpMin= 2.62D-02 ExpMax= 2.52D+04 ExpMxC= 3.78D+03 IAcc=3 IRadAn=         5 AccDes= 0.00D+00
 Harris functional with IExCor= 1009 and IRadAn=       5 diagonalized for initial guess.
 HarFok:  IExCor= 1009 AccDes= 0.00D+00 IRadAn=         5 IDoV= 1 UseB2=F ITyADJ=14
 ICtDFT=  3500011 ScaDFX=  1.000000  1.000000  1.000000  1.000000
 Defaulting to unpruned grid for atomic number  46.
 Defaulting to unpruned grid for atomic number  46.
 Defaulting to unpruned grid for atomic number  46.
 Defaulting to unpruned grid for atomic number  46.
 Defaulting to unpruned grid for atomic number  46.
 Defaulting to unpruned grid for atomic number  46.
 Defaulting to unpruned grid for atomic number  46.
 Defaulting to unpruned grid for atomic number  46.
 Defaulting to unpruned grid for atomic number  46.
 Defaulting to unpruned grid for atomic number  46.
 Defaulting to unpruned grid for atomic number  46.
 Defaulting to unpruned grid for atomic number  46.
 Defaulting to unpruned grid for atomic number  46.
 Defaulting to unpruned grid for atomic number  46.
 Defaulting to unpruned grid for atomic number  46.
 Defaulting to unpruned grid for atomic number  46.
 Defaulting to unpruned grid for atomic number  46.
 Defaulting to unpruned grid for atomic number  46.
 Defaulting to unpruned grid for atomic number  46.
 Defaulting to unpruned grid for atomic number  46.
 Defaulting to unpruned grid for atomic number  46.
 Defaulting to unpruned grid for atomic number  46.
 Defaulting to unpruned grid for atomic number  46.
 Defaulting to unpruned grid for atomic number  46.
 Defaulting to unpruned grid for atomic number  46.
 Defaulting to unpruned grid for atomic number  46.
 Defaulting to unpruned grid for atomic number  46.
 Defaulting to unpruned grid for atomic number  46.
 FoFCou: FMM=F IPFlag=           0 FMFlag=      100000 FMFlg1=        2001
         NFxFlg=           0 DoJE=T BraDBF=F KetDBF=T FulRan=T
         wScrn=  0.000000 ICntrl=     500 IOpCl=  0 I1Cent=   200000004 NGrid=           0
         NMat0=    1 NMatS0=      1 NMatT0=    0 NMatD0=    1 NMtDS0=    0 NMtDT0=    0
 Petite list used in FoFCou.
 Requested convergence on RMS density matrix=1.00D-08 within 128 cycles.
 Requested convergence on MAX density matrix=1.00D-06.
 Requested convergence on             energy=1.00D-06.
 No special actions if energy rises.
 Defaulting to unpruned grid for atomic number  46.
 Defaulting to unpruned grid for atomic number  46.
 Defaulting to unpruned grid for atomic number  46.
 Defaulting to unpruned grid for atomic number  46.
 Defaulting to unpruned grid for atomic number  46.
 Defaulting to unpruned grid for atomic number  46.
 Defaulting to unpruned grid for atomic number  46.
 Defaulting to unpruned grid for atomic number  46.
 Defaulting to unpruned grid for atomic number  46.
 Defaulting to unpruned grid for atomic number  46.
 Defaulting to unpruned grid for atomic number  46.
 Defaulting to unpruned grid for atomic number  46.
 Defaulting to unpruned grid for atomic number  46.
 Defaulting to unpruned grid for atomic number  46.
 Defaulting to unpruned grid for atomic number  46.
 Defaulting to unpruned grid for atomic number  46.
 Defaulting to unpruned grid for atomic number  46.
 Defaulting to unpruned grid for atomic number  46.
 Defaulting to unpruned grid for atomic number  46.
 Defaulting to unpruned grid for atomic number  46.
 Defaulting to unpruned grid for atomic number  46.
 Defaulting to unpruned grid for atomic number  46.
 Defaulting to unpruned grid for atomic number  46.
 Defaulting to unpruned grid for atomic number  46.
 Defaulting to unpruned grid for atomic number  46.
 Defaulting to unpruned grid for atomic number  46.
 Defaulting to unpruned grid for atomic number  46.
 Defaulting to unpruned grid for atomic number  46.
 EnCoef did     3 forward-backward iterations
 EnCoef did     2 forward-backward iterations
 EnCoef did     3 forward-backward iterations
 EnCoef did     2 forward-backward iterations
 Restarting incremental Fock formation.
 SCF Done:  E(RM06) =  -1856.02087270     A.U. after   27 cycles
            NFock= 27  Conv=0.48D-08     -V/T= 2.0508
 DoSCS=F DFT=T ScalE2(SS,OS)=  1.000000  1.000000
 Range of M.O.s used for correlation:     1   633
 NBasis=   634 NAE=   125 NBE=   125 NFC=     0 NFV=     0
 NROrb=    633 NOA=   125 NOB=   125 NVA=   508 NVB=   508

 **** Warning!!: The largest alpha MO coefficient is  0.14458014D+03

   1 Symmetry operations used in ECPInt.
 ECPInt:  NShTT=   25878 NPrTT=  135610 LenC2=   22973 LenP2D=   71727.
 LDataN:  DoStor=T MaxTD1= 6 Len=  172
 Number of processors reduced to   9 by ecpmxn.
 Symmetrizing basis deriv contribution to polar:
 IMax=3 JMax=2 DiffMx= 0.00D+00
 G2DrvN: will do    66 centers at a time, making    1 passes.
 Calling FoFCou, ICntrl=  3107 FMM=T I1Cent=   0 AccDes= 0.00D+00.
 Defaulting to unpruned grid for atomic number  46.
 Defaulting to unpruned grid for atomic number  46.
 Defaulting to unpruned grid for atomic number  46.
 Defaulting to unpruned grid for atomic number  46.
 Defaulting to unpruned grid for atomic number  46.
 Defaulting to unpruned grid for atomic number  46.
 Defaulting to unpruned grid for atomic number  46.
 Defaulting to unpruned grid for atomic number  46.
 Defaulting to unpruned grid for atomic number  46.
 Defaulting to unpruned grid for atomic number  46.
 Defaulting to unpruned grid for atomic number  46.
 Defaulting to unpruned grid for atomic number  46.
 Defaulting to unpruned grid for atomic number  46.
 Defaulting to unpruned grid for atomic number  46.
 Defaulting to unpruned grid for atomic number  46.
 Defaulting to unpruned grid for atomic number  46.
 Defaulting to unpruned grid for atomic number  46.
 Defaulting to unpruned grid for atomic number  46.
 Defaulting to unpruned grid for atomic number  46.
 Defaulting to unpruned grid for atomic number  46.
 Defaulting to unpruned grid for atomic number  46.
 Defaulting to unpruned grid for atomic number  46.
 Defaulting to unpruned grid for atomic number  46.
 Defaulting to unpruned grid for atomic number  46.
 Defaulting to unpruned grid for atomic number  46.
 Defaulting to unpruned grid for atomic number  46.
 Defaulting to unpruned grid for atomic number  46.
 Defaulting to unpruned grid for atomic number  46.
 End of G2Drv F.D. properties file   721 does not exist.
 End of G2Drv F.D. properties file   722 does not exist.
 End of G2Drv F.D. properties file   788 does not exist.
          IDoAtm=11111111111111111111111111111111111111111111111111
          IDoAtm=111111111111111
          Differentiating once with respect to electric field.
                with respect to dipole field.
          Differentiating once with respect to nuclear coordinates.
 Defaulting to unpruned grid for atomic number  46.
 CalDSu exits because no D1Ps are significant.
 Defaulting to unpruned grid for atomic number  46.
 Defaulting to unpruned grid for atomic number  46.
 Defaulting to unpruned grid for atomic number  46.
 Defaulting to unpruned grid for atomic number  46.
 Defaulting to unpruned grid for atomic number  46.
 Defaulting to unpruned grid for atomic number  46.
 Defaulting to unpruned grid for atomic number  46.
 Defaulting to unpruned grid for atomic number  46.
 Defaulting to unpruned grid for atomic number  46.
 Defaulting to unpruned grid for atomic number  46.
 Defaulting to unpruned grid for atomic number  46.
 Defaulting to unpruned grid for atomic number  46.
 Defaulting to unpruned grid for atomic number  46.
 Defaulting to unpruned grid for atomic number  46.
 Defaulting to unpruned grid for atomic number  46.
 Defaulting to unpruned grid for atomic number  46.
 Defaulting to unpruned grid for atomic number  46.
 Defaulting to unpruned grid for atomic number  46.
 Defaulting to unpruned grid for atomic number  46.
 Defaulting to unpruned grid for atomic number  46.
 Defaulting to unpruned grid for atomic number  46.
 Defaulting to unpruned grid for atomic number  46.
 Defaulting to unpruned grid for atomic number  46.
 Defaulting to unpruned grid for atomic number  46.
 Defaulting to unpruned grid for atomic number  46.
 Defaulting to unpruned grid for atomic number  46.
 Defaulting to unpruned grid for atomic number  46.
 Defaulting to unpruned grid for atomic number  46.
          There are   198 degrees of freedom in the 1st order CPHF.  IDoFFX=6 NUNeed=     3.
    198 vectors produced by pass  0 Test12= 6.35D-14 1.00D-09 XBig12= 4.21D+02 6.88D+00.
 AX will form    84 AO Fock derivatives at one time.
    198 vectors produced by pass  1 Test12= 6.35D-14 1.00D-09 XBig12= 1.38D+02 1.81D+00.
    195 vectors produced by pass  2 Test12= 6.35D-14 1.00D-09 XBig12= 2.88D+00 1.29D-01.
    195 vectors produced by pass  3 Test12= 6.35D-14 1.00D-09 XBig12= 1.58D-02 1.01D-02.
    195 vectors produced by pass  4 Test12= 6.35D-14 1.00D-09 XBig12= 6.70D-05 5.62D-04.
    195 vectors produced by pass  5 Test12= 6.35D-14 1.00D-09 XBig12= 1.94D-07 2.11D-05.
    194 vectors produced by pass  6 Test12= 6.35D-14 1.00D-09 XBig12= 4.93D-10 1.24D-06.
    193 vectors produced by pass  7 Test12= 6.35D-14 1.00D-09 XBig12= 3.27D-12 7.75D-08.
    193 vectors produced by pass  8 Test12= 6.35D-14 1.00D-09 XBig12= 2.96D-13 2.13D-08.
    186 vectors produced by pass  9 Test12= 6.35D-14 1.00D-09 XBig12= 6.47D-14 1.19D-08.
    186 vectors produced by pass 10 Test12= 6.35D-14 1.00D-09 XBig12= 1.09D-13 1.26D-08.
    157 vectors produced by pass 11 Test12= 6.35D-14 1.00D-09 XBig12= 1.02D-13 1.12D-08.
    125 vectors produced by pass 12 Test12= 6.35D-14 1.00D-09 XBig12= 7.61D-14 9.31D-09.
     87 vectors produced by pass 13 Test12= 6.35D-14 1.00D-09 XBig12= 4.11D-14 7.32D-09.
     87 vectors produced by pass 14 Test12= 6.35D-14 1.00D-09 XBig12= 5.55D-14 8.23D-09.
     56 vectors produced by pass 15 Test12= 6.35D-14 1.00D-09 XBig12= 1.72D-14 4.56D-09.
     56 vectors produced by pass 16 Test12= 6.35D-14 1.00D-09 XBig12= 2.75D-14 5.62D-09.
     43 vectors produced by pass 17 Test12= 6.35D-14 1.00D-09 XBig12= 1.07D-14 3.24D-09.
     43 vectors produced by pass 18 Test12= 6.35D-14 1.00D-09 XBig12= 1.93D-14 5.40D-09.
     39 vectors produced by pass 19 Test12= 6.35D-14 1.00D-09 XBig12= 1.09D-14 3.51D-09.
     39 vectors produced by pass 20 Test12= 6.35D-14 1.00D-09 XBig12= 2.77D-14 5.27D-09.
     39 vectors produced by pass 21 Test12= 6.35D-14 1.00D-09 XBig12= 1.24D-14 3.45D-09.
     39 vectors produced by pass 22 Test12= 6.35D-14 1.00D-09 XBig12= 1.74D-14 4.31D-09.
     39 vectors produced by pass 23 Test12= 6.35D-14 1.00D-09 XBig12= 1.24D-14 3.70D-09.
     39 vectors produced by pass 24 Test12= 6.35D-14 1.00D-09 XBig12= 1.88D-14 4.60D-09.
     38 vectors produced by pass 25 Test12= 6.35D-14 1.00D-09 XBig12= 1.22D-14 3.53D-09.
     38 vectors produced by pass 26 Test12= 6.35D-14 1.00D-09 XBig12= 1.32D-14 3.92D-09.
     18 vectors produced by pass 27 Test12= 6.35D-14 1.00D-09 XBig12= 5.78D-15 2.47D-09.
     18 vectors produced by pass 28 Test12= 6.35D-14 1.00D-09 XBig12= 8.81D-15 3.09D-09.
     18 vectors produced by pass 29 Test12= 6.35D-14 1.00D-09 XBig12= 2.00D-14 4.19D-09.
     18 vectors produced by pass 30 Test12= 6.35D-14 1.00D-09 XBig12= 6.54D-15 2.95D-09.
     18 vectors produced by pass 31 Test12= 6.35D-14 1.00D-09 XBig12= 9.90D-15 4.16D-09.
      5 vectors produced by pass 32 Test12= 6.35D-14 1.00D-09 XBig12= 2.70D-15 1.70D-09.
      5 vectors produced by pass 33 Test12= 6.35D-14 1.00D-09 XBig12= 9.16D-15 2.78D-09.
      5 vectors produced by pass 34 Test12= 6.35D-14 1.00D-09 XBig12= 3.80D-15 2.36D-09.
      5 vectors produced by pass 35 Test12= 6.35D-14 1.00D-09 XBig12= 4.26D-15 2.05D-09.
      5 vectors produced by pass 36 Test12= 6.35D-14 1.00D-09 XBig12= 7.80D-15 3.03D-09.
      5 vectors produced by pass 37 Test12= 6.35D-14 1.00D-09 XBig12= 8.02D-15 3.11D-09.
      5 vectors produced by pass 38 Test12= 6.35D-14 1.00D-09 XBig12= 7.03D-15 2.60D-09.
      5 vectors produced by pass 39 Test12= 6.35D-14 1.00D-09 XBig12= 3.99D-15 2.19D-09.
      5 vectors produced by pass 40 Test12= 6.35D-14 1.00D-09 XBig12= 1.42D-14 4.03D-09.
      5 vectors produced by pass 41 Test12= 6.35D-14 1.00D-09 XBig12= 3.31D-15 1.79D-09.
      5 vectors produced by pass 42 Test12= 6.35D-14 1.00D-09 XBig12= 4.00D-15 2.12D-09.
      5 vectors produced by pass 43 Test12= 6.35D-14 1.00D-09 XBig12= 6.35D-15 2.77D-09.
      5 vectors produced by pass 44 Test12= 6.35D-14 1.00D-09 XBig12= 5.75D-15 2.35D-09.
      5 vectors produced by pass 45 Test12= 6.35D-14 1.00D-09 XBig12= 3.22D-15 1.73D-09.
      5 vectors produced by pass 46 Test12= 6.35D-14 1.00D-09 XBig12= 4.57D-15 2.32D-09.
      5 vectors produced by pass 47 Test12= 6.35D-14 1.00D-09 XBig12= 6.34D-15 2.50D-09.
      5 vectors produced by pass 48 Test12= 6.35D-14 1.00D-09 XBig12= 6.11D-15 2.71D-09.
      5 vectors produced by pass 49 Test12= 6.35D-14 1.00D-09 XBig12= 7.64D-15 2.99D-09.
      5 vectors produced by pass 50 Test12= 6.35D-14 1.00D-09 XBig12= 2.33D-15 1.63D-09.
      5 vectors produced by pass 51 Test12= 6.35D-14 1.00D-09 XBig12= 9.21D-15 3.33D-09.
      5 vectors produced by pass 52 Test12= 6.35D-14 1.00D-09 XBig12= 3.91D-15 1.92D-09.
      5 vectors produced by pass 53 Test12= 6.35D-14 1.00D-09 XBig12= 3.31D-15 2.14D-09.
      5 vectors produced by pass 54 Test12= 6.35D-14 1.00D-09 XBig12= 6.04D-15 2.55D-09.
      5 vectors produced by pass 55 Test12= 6.35D-14 1.00D-09 XBig12= 4.06D-15 2.24D-09.
      5 vectors produced by pass 56 Test12= 6.35D-14 1.00D-09 XBig12= 3.06D-15 1.84D-09.
      5 vectors produced by pass 57 Test12= 6.35D-14 1.00D-09 XBig12= 7.03D-15 2.92D-09.
      5 vectors produced by pass 58 Test12= 6.35D-14 1.00D-09 XBig12= 2.49D-15 1.46D-09.
      5 vectors produced by pass 59 Test12= 6.35D-14 1.00D-09 XBig12= 8.97D-15 3.80D-09.
      5 vectors produced by pass 60 Test12= 6.35D-14 1.00D-09 XBig12= 4.96D-15 2.17D-09.
      5 vectors produced by pass 61 Test12= 6.35D-14 1.00D-09 XBig12= 2.63D-15 1.67D-09.
      5 vectors produced by pass 62 Test12= 6.35D-14 1.00D-09 XBig12= 2.90D-15 1.72D-09.
      5 vectors produced by pass 63 Test12= 6.35D-14 1.00D-09 XBig12= 6.04D-15 2.73D-09.
      5 vectors produced by pass 64 Test12= 6.35D-14 1.00D-09 XBig12= 4.05D-15 2.00D-09.
      5 vectors produced by pass 65 Test12= 6.35D-14 1.00D-09 XBig12= 1.07D-14 3.27D-09.
      5 vectors produced by pass 66 Test12= 6.35D-14 1.00D-09 XBig12= 7.13D-15 2.44D-09.
      5 vectors produced by pass 67 Test12= 6.35D-14 1.00D-09 XBig12= 5.62D-15 2.28D-09.
      5 vectors produced by pass 68 Test12= 6.35D-14 1.00D-09 XBig12= 4.43D-15 2.15D-09.
      5 vectors produced by pass 69 Test12= 6.35D-14 1.00D-09 XBig12= 5.84D-15 2.56D-09.
      5 vectors produced by pass 70 Test12= 6.35D-14 1.00D-09 XBig12= 3.08D-15 1.83D-09.
      5 vectors produced by pass 71 Test12= 6.35D-14 1.00D-09 XBig12= 6.20D-15 2.81D-09.
      5 vectors produced by pass 72 Test12= 6.35D-14 1.00D-09 XBig12= 4.72D-15 2.35D-09.
      5 vectors produced by pass 73 Test12= 6.35D-14 1.00D-09 XBig12= 2.54D-15 1.65D-09.
      5 vectors produced by pass 74 Test12= 6.35D-14 1.00D-09 XBig12= 4.70D-15 2.21D-09.
      5 vectors produced by pass 75 Test12= 6.35D-14 1.00D-09 XBig12= 2.97D-15 1.69D-09.
      5 vectors produced by pass 76 Test12= 6.35D-14 1.00D-09 XBig12= 1.09D-14 3.41D-09.
      5 vectors produced by pass 77 Test12= 6.35D-14 1.00D-09 XBig12= 3.66D-15 1.96D-09.
      5 vectors produced by pass 78 Test12= 6.35D-14 1.00D-09 XBig12= 7.58D-15 2.83D-09.
      5 vectors produced by pass 79 Test12= 6.35D-14 1.00D-09 XBig12= 1.10D-14 3.37D-09.
      5 vectors produced by pass 80 Test12= 6.35D-14 1.00D-09 XBig12= 3.43D-15 2.13D-09.
      5 vectors produced by pass 81 Test12= 6.35D-14 1.00D-09 XBig12= 9.64D-15 3.02D-09.
      5 vectors produced by pass 82 Test12= 6.35D-14 1.00D-09 XBig12= 6.83D-15 2.68D-09.
      5 vectors produced by pass 83 Test12= 6.35D-14 1.00D-09 XBig12= 1.56D-15 1.30D-09.
      5 vectors produced by pass 84 Test12= 6.35D-14 1.00D-09 XBig12= 5.38D-15 2.36D-09.
      5 vectors produced by pass 85 Test12= 6.35D-14 1.00D-09 XBig12= 3.39D-15 2.12D-09.
      5 vectors produced by pass 86 Test12= 6.35D-14 1.00D-09 XBig12= 5.25D-15 2.41D-09.
      5 vectors produced by pass 87 Test12= 6.35D-14 1.00D-09 XBig12= 4.25D-15 2.13D-09.
      5 vectors produced by pass 88 Test12= 6.35D-14 1.00D-09 XBig12= 4.19D-15 2.32D-09.
      5 vectors produced by pass 89 Test12= 6.35D-14 1.00D-09 XBig12= 6.80D-15 2.71D-09.
      5 vectors produced by pass 90 Test12= 6.35D-14 1.00D-09 XBig12= 1.82D-15 1.28D-09.
      5 vectors produced by pass 91 Test12= 6.35D-14 1.00D-09 XBig12= 6.88D-15 2.82D-09.
      5 vectors produced by pass 92 Test12= 6.35D-14 1.00D-09 XBig12= 3.60D-15 1.88D-09.
 InvSVY:  IOpt=1 It=  1 EMax= 1.28D-14
 Solved reduced A of dimension  3487 with   198 vectors.
 Isotropic polarizability for W=    0.000000      343.16 Bohr**3.
 End of Minotr F.D. properties file   721 does not exist.
 End of Minotr F.D. properties file   722 does not exist.
 End of Minotr F.D. properties file   788 does not exist.

 **********************************************************************

            Population analysis using the SCF density.

 **********************************************************************

 Orbital symmetries:
       Occupied  (A) (A) (A) (A) (A) (A) (A) (A) (A) (A) (A) (A)
                 (A) (A) (A) (A) (A) (A) (A) (A) (A) (A) (A) (A)
                 (A) (A) (A) (A) (A) (A) (A) (A) (A) (A) (A) (A)
                 (A) (A) (A) (A) (A) (A) (A) (A) (A) (A) (A) (A)
                 (A) (A) (A) (A) (A) (A) (A) (A) (A) (A) (A) (A)
                 (A) (A) (A) (A) (A) (A) (A) (A) (A) (A) (A) (A)
                 (A) (A) (A) (A) (A) (A) (A) (A) (A) (A) (A) (A)
                 (A) (A) (A) (A) (A) (A) (A) (A) (A) (A) (A) (A)
                 (A) (A) (A) (A) (A) (A) (A) (A) (A) (A) (A) (A)
                 (A) (A) (A) (A) (A) (A) (A) (A) (A) (A) (A) (A)
                 (A) (A) (A) (A) (A)
       Virtual   (A) (A) (A) (A) (A) (A) (A) (A) (A) (A) (A) (A)
                 (A) (A) (A) (A) (A) (A) (A) (A) (A) (A) (A) (A)
                 (A) (A) (A) (A) (A) (A) (A) (A) (A) (A) (A) (A)
                 (A) (A) (A) (A) (A) (A) (A) (A) (A) (A) (A) (A)
                 (A) (A) (A) (A) (A) (A) (A) (A) (A) (A) (A) (A)
                 (A) (A) (A) (A) (A) (A) (A) (A) (A) (A) (A) (A)
                 (A) (A) (A) (A) (A) (A) (A) (A) (A) (A) (A) (A)
                 (A) (A) (A) (A) (A) (A) (A) (A) (A) (A) (A) (A)
                 (A) (A) (A) (A) (A) (A) (A) (A) (A) (A) (A) (A)
                 (A) (A) (A) (A) (A) (A) (A) (A) (A) (A) (A) (A)
                 (A) (A) (A) (A) (A) (A) (A) (A) (A) (A) (A) (A)
                 (A) (A) (A) (A) (A) (A) (A) (A) (A) (A) (A) (A)
                 (A) (A) (A) (A) (A) (A) (A) (A) (A) (A) (A) (A)
                 (A) (A) (A) (A) (A) (A) (A) (A) (A) (A) (A) (A)
                 (A) (A) (A) (A) (A) (A) (A) (A) (A) (A) (A) (A)
                 (A) (A) (A) (A) (A) (A) (A) (A) (A) (A) (A) (A)
                 (A) (A) (A) (A) (A) (A) (A) (A) (A) (A) (A) (A)
                 (A) (A) (A) (A) (A) (A) (A) (A) (A) (A) (A) (A)
                 (A) (A) (A) (A) (A) (A) (A) (A) (A) (A) (A) (A)
                 (A) (A) (A) (A) (A) (A) (A) (A) (A) (A) (A) (A)
                 (A) (A) (A) (A) (A) (A) (A) (A) (A) (A) (A) (A)
                 (A) (A) (A) (A) (A) (A) (A) (A) (A) (A) (A) (A)
                 (A) (A) (A) (A) (A) (A) (A) (A) (A) (A) (A) (A)
                 (A) (A) (A) (A) (A) (A) (A) (A) (A) (A) (A) (A)
                 (A) (A) (A) (A) (A) (A) (A) (A) (A) (A) (A) (A)
                 (A) (A) (A) (A) (A) (A) (A) (A) (A) (A) (A) (A)
                 (A) (A) (A) (A) (A) (A) (A) (A) (A) (A) (A) (A)
                 (A) (A) (A) (A) (A) (A) (A) (A) (A) (A) (A) (A)
                 (A) (A) (A) (A) (A) (A) (A) (A) (A) (A) (A) (A)
                 (A) (A) (A) (A) (A) (A) (A) (A) (A) (A) (A) (A)
                 (A) (A) (A) (A) (A) (A) (A) (A) (A) (A) (A) (A)
                 (A) (A) (A) (A) (A) (A) (A) (A) (A) (A) (A) (A)
                 (A) (A) (A) (A) (A) (A) (A) (A) (A) (A) (A) (A)
                 (A) (A) (A) (A) (A) (A) (A) (A) (A) (A) (A) (A)
                 (A) (A) (A) (A) (A) (A) (A) (A) (A) (A) (A) (A)
                 (A) (A) (A) (A) (A) (A) (A) (A) (A) (A) (A) (A)
                 (A) (A) (A) (A) (A) (A) (A) (A) (A) (A) (A) (A)
                 (A) (A) (A) (A) (A) (A) (A) (A) (A) (A) (A) (A)
                 (A) (A) (A) (A) (A) (A) (A) (A) (A) (A) (A) (A)
                 (A) (A) (A) (A) (A) (A) (A) (A) (A) (A) (A) (A)
                 (A) (A) (A) (A) (A) (A) (A) (A) (A) (A) (A) (A)
                 (A) (A) (A) (A) (A) (A) (A) (A) (A) (A) (A) (A)
                 (A) (A) (A) (A)
 The electronic state is 1-A.
 Alpha  occ. eigenvalues -- -101.84463 -19.41790 -19.34911 -19.31620 -14.57798
 Alpha  occ. eigenvalues --  -14.55249 -10.49949 -10.48857 -10.45273 -10.43663
 Alpha  occ. eigenvalues --  -10.43627 -10.42653 -10.42035 -10.41792 -10.41392
 Alpha  occ. eigenvalues --  -10.41040 -10.40772 -10.40718 -10.40386 -10.37721
 Alpha  occ. eigenvalues --  -10.37252 -10.36481 -10.36123 -10.35999 -10.35394
 Alpha  occ. eigenvalues --  -10.34729 -10.34630 -10.34131 -10.34118 -10.34001
 Alpha  occ. eigenvalues --   -9.71643  -7.42906  -7.41888  -7.41820  -3.46510
 Alpha  occ. eigenvalues --   -2.20842  -2.20631  -2.17649  -1.27081  -1.16821
 Alpha  occ. eigenvalues --   -1.15502  -1.13246  -1.07334  -1.01305  -0.97552
 Alpha  occ. eigenvalues --   -0.96725  -0.95970  -0.95624  -0.92386  -0.89636
 Alpha  occ. eigenvalues --   -0.88079  -0.87310  -0.84622  -0.82286  -0.81392
 Alpha  occ. eigenvalues --   -0.80523  -0.79942  -0.79838  -0.79347  -0.77400
 Alpha  occ. eigenvalues --   -0.76673  -0.72544  -0.71799  -0.70526  -0.68933
 Alpha  occ. eigenvalues --   -0.67313  -0.66826  -0.65570  -0.65293  -0.64591
 Alpha  occ. eigenvalues --   -0.63768  -0.61498  -0.60738  -0.60479  -0.59837
 Alpha  occ. eigenvalues --   -0.59417  -0.59012  -0.58798  -0.57753  -0.57354
 Alpha  occ. eigenvalues --   -0.57051  -0.56612  -0.56280  -0.55776  -0.55535
 Alpha  occ. eigenvalues --   -0.54133  -0.53895  -0.53817  -0.53082  -0.52911
 Alpha  occ. eigenvalues --   -0.52568  -0.52205  -0.51686  -0.51462  -0.51396
 Alpha  occ. eigenvalues --   -0.51105  -0.50947  -0.50230  -0.49429  -0.49233
 Alpha  occ. eigenvalues --   -0.48819  -0.48616  -0.48152  -0.47869  -0.47573
 Alpha  occ. eigenvalues --   -0.47419  -0.47171  -0.46598  -0.46201  -0.45248
 Alpha  occ. eigenvalues --   -0.44991  -0.44690  -0.44415  -0.44117  -0.43368
 Alpha  occ. eigenvalues --   -0.42557  -0.41896  -0.41400  -0.40654  -0.40235
 Alpha  occ. eigenvalues --   -0.39514  -0.38522  -0.37242  -0.35488  -0.35134
 Alpha virt. eigenvalues --   -0.19659  -0.18135  -0.17645  -0.15962  -0.12910
 Alpha virt. eigenvalues --   -0.12420  -0.11719  -0.11105  -0.10710  -0.10105
 Alpha virt. eigenvalues --   -0.10094  -0.09729  -0.09587  -0.09291  -0.09065
 Alpha virt. eigenvalues --   -0.08690  -0.08342  -0.08259  -0.07819  -0.07731
 Alpha virt. eigenvalues --   -0.07187  -0.06929  -0.06808  -0.06436  -0.06284
 Alpha virt. eigenvalues --   -0.05758  -0.05538  -0.05424  -0.05026  -0.04933
 Alpha virt. eigenvalues --   -0.04424  -0.04238  -0.04044  -0.03906  -0.03364
 Alpha virt. eigenvalues --   -0.03263  -0.02848  -0.02561  -0.02443  -0.02282
 Alpha virt. eigenvalues --   -0.02092  -0.01898  -0.01667  -0.01281  -0.01036
 Alpha virt. eigenvalues --   -0.00761  -0.00520  -0.00319  -0.00146  -0.00062
 Alpha virt. eigenvalues --    0.00197   0.00457   0.00970   0.01017   0.01592
 Alpha virt. eigenvalues --    0.01778   0.01819   0.02064   0.02273   0.02553
 Alpha virt. eigenvalues --    0.02731   0.02996   0.03249   0.03611   0.03788
 Alpha virt. eigenvalues --    0.03975   0.04039   0.04409   0.04819   0.04890
 Alpha virt. eigenvalues --    0.04998   0.05346   0.05461   0.05513   0.05781
 Alpha virt. eigenvalues --    0.06081   0.06295   0.06439   0.06711   0.06851
 Alpha virt. eigenvalues --    0.07142   0.07251   0.07532   0.07685   0.08082
 Alpha virt. eigenvalues --    0.08195   0.08671   0.08814   0.08923   0.09340
 Alpha virt. eigenvalues --    0.09556   0.09705   0.09779   0.09885   0.10229
 Alpha virt. eigenvalues --    0.10440   0.10721   0.10779   0.10937   0.11150
 Alpha virt. eigenvalues --    0.11236   0.11631   0.11789   0.11911   0.12243
 Alpha virt. eigenvalues --    0.12408   0.12561   0.12742   0.12801   0.12942
 Alpha virt. eigenvalues --    0.13321   0.13721   0.13767   0.13888   0.14258
 Alpha virt. eigenvalues --    0.14323   0.14536   0.14584   0.14920   0.15192
 Alpha virt. eigenvalues --    0.15366   0.15637   0.15812   0.16173   0.16204
 Alpha virt. eigenvalues --    0.16267   0.16564   0.17020   0.17141   0.17465
 Alpha virt. eigenvalues --    0.17492   0.17619   0.18031   0.18172   0.18558
 Alpha virt. eigenvalues --    0.18785   0.19042   0.19264   0.19590   0.19909
 Alpha virt. eigenvalues --    0.20113   0.20142   0.20720   0.20785   0.21261
 Alpha virt. eigenvalues --    0.21427   0.21701   0.21817   0.22205   0.22313
 Alpha virt. eigenvalues --    0.22931   0.23175   0.23382   0.23661   0.24171
 Alpha virt. eigenvalues --    0.24318   0.24580   0.24781   0.25143   0.25436
 Alpha virt. eigenvalues --    0.25984   0.26128   0.26454   0.26838   0.27323
 Alpha virt. eigenvalues --    0.27654   0.27787   0.27945   0.28734   0.28852
 Alpha virt. eigenvalues --    0.29099   0.29375   0.29950   0.30644   0.30846
 Alpha virt. eigenvalues --    0.31623   0.31862   0.32174   0.32279   0.32867
 Alpha virt. eigenvalues --    0.33569   0.33927   0.34355   0.35614   0.35758
 Alpha virt. eigenvalues --    0.36628   0.36808   0.37861   0.38325   0.38748
 Alpha virt. eigenvalues --    0.39437   0.39942   0.41764   0.42548   0.43650
 Alpha virt. eigenvalues --    0.45282   0.46574   0.48883   0.50333   0.52524
 Alpha virt. eigenvalues --    0.53989   0.54947   0.55315   0.56186   0.56982
 Alpha virt. eigenvalues --    0.57476   0.57800   0.58568   0.59510   0.59740
 Alpha virt. eigenvalues --    0.60107   0.60423   0.60859   0.61584   0.62001
 Alpha virt. eigenvalues --    0.62060   0.62704   0.63093   0.63182   0.63825
 Alpha virt. eigenvalues --    0.64053   0.65035   0.65164   0.65619   0.65899
 Alpha virt. eigenvalues --    0.66320   0.66688   0.66788   0.67037   0.67309
 Alpha virt. eigenvalues --    0.67740   0.68390   0.68709   0.69458   0.70367
 Alpha virt. eigenvalues --    0.70913   0.71106   0.71592   0.72280   0.73173
 Alpha virt. eigenvalues --    0.73349   0.73578   0.74261   0.75043   0.75206
 Alpha virt. eigenvalues --    0.75825   0.76326   0.76675   0.77384   0.78033
 Alpha virt. eigenvalues --    0.78325   0.78562   0.79377   0.80026   0.80201
 Alpha virt. eigenvalues --    0.80351   0.80981   0.81523   0.82126   0.82807
 Alpha virt. eigenvalues --    0.83093   0.83295   0.83712   0.84158   0.84719
 Alpha virt. eigenvalues --    0.85513   0.85655   0.86165   0.86477   0.87261
 Alpha virt. eigenvalues --    0.87928   0.88559   0.89143   0.89679   0.90060
 Alpha virt. eigenvalues --    0.90770   0.91186   0.91792   0.92018   0.92527
 Alpha virt. eigenvalues --    0.92758   0.93596   0.93925   0.94255   0.94579
 Alpha virt. eigenvalues --    0.95560   0.95885   0.96544   0.96992   0.97552
 Alpha virt. eigenvalues --    0.98085   0.98575   0.98661   0.99433   1.00560
 Alpha virt. eigenvalues --    1.00815   1.01339   1.01623   1.01965   1.02412
 Alpha virt. eigenvalues --    1.03449   1.03953   1.04765   1.05113   1.05302
 Alpha virt. eigenvalues --    1.06124   1.06384   1.07099   1.07477   1.07859
 Alpha virt. eigenvalues --    1.08793   1.09402   1.09739   1.10589   1.11635
 Alpha virt. eigenvalues --    1.12016   1.12864   1.13068   1.13576   1.15573
 Alpha virt. eigenvalues --    1.16453   1.17186   1.17572   1.17721   1.19574
 Alpha virt. eigenvalues --    1.20318   1.20942   1.21023   1.21876   1.23187
 Alpha virt. eigenvalues --    1.23467   1.24660   1.24766   1.25805   1.26457
 Alpha virt. eigenvalues --    1.27523   1.28316   1.28971   1.29672   1.30633
 Alpha virt. eigenvalues --    1.30786   1.32106   1.33017   1.34454   1.34865
 Alpha virt. eigenvalues --    1.35481   1.36741   1.37680   1.37781   1.38457
 Alpha virt. eigenvalues --    1.39200   1.40156   1.41148   1.42170   1.43389
 Alpha virt. eigenvalues --    1.44487   1.45040   1.45573   1.46145   1.49140
 Alpha virt. eigenvalues --    1.50344   1.51554   1.51750   1.53124   1.53481
 Alpha virt. eigenvalues --    1.55477   1.57006   1.57459   1.58389   1.59207
 Alpha virt. eigenvalues --    1.60412   1.60905   1.61857   1.63635   1.64260
 Alpha virt. eigenvalues --    1.64966   1.66504   1.67346   1.67812   1.68786
 Alpha virt. eigenvalues --    1.68954   1.70459   1.71257   1.72189   1.72373
 Alpha virt. eigenvalues --    1.72866   1.73711   1.74330   1.75279   1.75421
 Alpha virt. eigenvalues --    1.76750   1.77405   1.78832   1.79176   1.79732
 Alpha virt. eigenvalues --    1.80217   1.80322   1.81510   1.81781   1.83297
 Alpha virt. eigenvalues --    1.83786   1.84256   1.84600   1.85271   1.85894
 Alpha virt. eigenvalues --    1.86323   1.87685   1.88493   1.90414   1.91186
 Alpha virt. eigenvalues --    1.91579   1.92657   1.93057   1.94599   1.94780
 Alpha virt. eigenvalues --    1.95270   1.96352   1.97255   1.97885   1.98400
 Alpha virt. eigenvalues --    1.98808   1.99975   2.00485   2.01111   2.01657
 Alpha virt. eigenvalues --    2.02229   2.03804   2.04094   2.05554   2.05924
 Alpha virt. eigenvalues --    2.06710   2.07467   2.09666   2.09835   2.10102
 Alpha virt. eigenvalues --    2.10474   2.11633   2.12197   2.12490   2.13128
 Alpha virt. eigenvalues --    2.13389   2.14090   2.14414   2.14844   2.15122
 Alpha virt. eigenvalues --    2.16255   2.16980   2.17368   2.19097   2.19707
 Alpha virt. eigenvalues --    2.19983   2.20520   2.21690   2.22783   2.24721
 Alpha virt. eigenvalues --    2.25520   2.27059   2.27468   2.29545   2.30364
 Alpha virt. eigenvalues --    2.32191   2.33271   2.35672   2.36540   2.37361
 Alpha virt. eigenvalues --    2.37948   2.38496   2.40542   2.41581   2.42723
 Alpha virt. eigenvalues --    2.44024   2.44528   2.46396   2.47447   2.48748
 Alpha virt. eigenvalues --    2.49330   2.51377   2.52418   2.54388   2.55049
 Alpha virt. eigenvalues --    2.57277   2.57752   2.59378   2.61118   2.63117
 Alpha virt. eigenvalues --    2.65845   2.67291   2.69040   2.69562   2.70522
 Alpha virt. eigenvalues --    2.70691   2.72995   2.74081   2.74731   2.76642
 Alpha virt. eigenvalues --    2.79215   2.80142   2.81468   2.85798   2.91298
 Alpha virt. eigenvalues --    2.92434   2.97070   2.99867   3.05289   3.13982
 Alpha virt. eigenvalues --    3.15219   3.27119  21.81241
          Condensed to atoms (all electrons):
 Mulliken charges:
               1
     1  C   -0.125708
     2  C   -0.512474
     3  C   -0.165208
     4  C   -0.140356
     5  H    0.258655
     6  C   -0.326902
     7  N    0.202305
     8  H    0.250220
     9  H    0.258629
    10  Cl   0.430712
    11  C   -0.142050
    12  O   -0.226547
    13  N    0.030754
    14  C   -0.270108
    15  H    0.234872
    16  H    0.239250
    17  C    0.381894
    18  C   -1.051647
    19  H    0.199309
    20  Pd  -0.514511
    21  C   -0.329518
    22  C   -0.218222
    23  C    0.680800
    24  C   -0.846871
    25  C   -0.404753
    26  H    0.255269
    27  H    0.228885
    28  C   -0.083611
    29  H    0.241837
    30  H    0.216954
    31  C   -0.585563
    32  C   -0.336845
    33  C    0.109577
    34  H    0.173452
    35  H    0.204579
    36  H    0.256730
    37  C   -0.180182
    38  O   -0.314018
    39  C   -0.225904
    40  H    0.218169
    41  H    0.251808
    42  H    0.262746
    43  H    0.247302
    44  H    0.223492
    45  H    0.217496
    46  H    0.250684
    47  H    0.279897
    48  C   -0.653233
    49  H    0.242060
    50  H    0.247344
    51  H    0.262287
    52  O   -0.612509
    53  H    0.525966
    54  C   -0.213498
    55  H    0.239491
    56  H    0.231048
    57  H    0.228485
    58  C   -0.287134
    59  H    0.226206
    60  H    0.241942
    61  H    0.217299
    62  C   -0.363734
    63  H    0.235563
    64  H    0.198457
    65  H    0.228678
 Sum of Mulliken charges =   1.00000
 Mulliken charges with hydrogens summed into heavy atoms:
               1
     1  C   -0.125708
     2  C   -0.253845
     3  C    0.085013
     4  C    0.118299
     6  C   -0.326902
     7  N    0.202305
    10  Cl   0.430712
    11  C   -0.142050
    12  O   -0.226547
    13  N    0.030754
    14  C    0.204014
    17  C    0.581203
    18  C   -1.051647
    20  Pd  -0.514511
    21  C    0.174515
    22  C   -0.218222
    23  C    1.153566
    24  C   -0.846871
    25  C    0.047625
    28  C    0.655076
    31  C   -0.585563
    32  C   -0.086161
    33  C    0.487608
    37  C   -0.180182
    38  O   -0.314018
    39  C    0.506820
    48  C    0.098457
    52  O   -0.086543
    54  C    0.485526
    58  C    0.398313
    62  C    0.298964
 APT charges:
               1
     1  C    0.104921
     2  C   -0.126805
     3  C    0.172794
     4  C   -0.148170
     5  H    0.093592
     6  C    0.499443
     7  N   -0.448094
     8  H    0.073220
     9  H    0.100800
    10  Cl  -0.257269
    11  C    0.933367
    12  O   -0.811627
    13  N   -0.713021
    14  C    0.333728
    15  H    0.033310
    16  H   -0.003004
    17  C    0.254383
    18  C    0.092426
    19  H   -0.020063
    20  Pd   0.157641
    21  C   -0.047220
    22  C   -0.450789
    23  C   -0.049147
    24  C    0.324154
    25  C    0.101516
    26  H   -0.005581
    27  H   -0.022997
    28  C   -0.091399
    29  H    0.026925
    30  H    0.013514
    31  C    0.277790
    32  C    0.234570
    33  C    0.539487
    34  H   -0.060391
    35  H   -0.048811
    36  H    0.016988
    37  C    1.023906
    38  O   -0.799020
    39  C   -0.010779
    40  H    0.002475
    41  H    0.018837
    42  H    0.029861
    43  H    0.009021
    44  H   -0.016892
    45  H   -0.005845
    46  H    0.009544
    47  H    0.037565
    48  C   -0.056675
    49  H    0.037159
    50  H    0.025756
    51  H    0.035962
    52  O   -0.721602
    53  H    0.293074
    54  C   -0.011447
    55  H    0.009747
    56  H   -0.011115
    57  H    0.006735
    58  C    0.014067
    59  H    0.000560
    60  H    0.002558
    61  H    0.003043
    62  C    0.012204
    63  H   -0.006647
    64  H   -0.003185
    65  H   -0.009050
 Sum of APT charges =   1.00000
 APT charges with hydrogens summed into heavy atoms:
               1
     1  C    0.104921
     2  C   -0.026005
     3  C    0.246014
     4  C   -0.054577
     6  C    0.499443
     7  N   -0.448094
    10  Cl  -0.257269
    11  C    0.933367
    12  O   -0.811627
    13  N   -0.713021
    14  C    0.364033
    17  C    0.234320
    18  C    0.092426
    20  Pd   0.157641
    21  C   -0.021211
    22  C   -0.450789
    23  C   -0.060573
    24  C    0.324154
    25  C    0.061627
    28  C   -0.013394
    31  C    0.277790
    32  C    0.244114
    33  C    0.430284
    37  C    1.023906
    38  O   -0.799020
    39  C    0.040393
    48  C    0.042202
    52  O   -0.428528
    54  C   -0.006079
    58  C    0.020229
    62  C   -0.006678
 Electronic spatial extent (au):  <R**2>=          13081.9168
 Charge=              1.0000 electrons
 Dipole moment (field-independent basis, Debye):
    X=             -5.6285    Y=             -0.0042    Z=             -0.5967  Tot=              5.6601
 Quadrupole moment (field-independent basis, Debye-Ang):
   XX=           -171.8246   YY=           -154.7203   ZZ=           -188.4873
   XY=             -4.4824   XZ=              8.0680   YZ=             -9.8285
 Traceless Quadrupole moment (field-independent basis, Debye-Ang):
   XX=             -0.1472   YY=             16.9571   ZZ=            -16.8099
   XY=             -4.4824   XZ=              8.0680   YZ=             -9.8285
 Octapole moment (field-independent basis, Debye-Ang**2):
  XXX=           -194.9684  YYY=             60.5277  ZZZ=             -5.2772  XYY=              1.0800
  XXY=            -73.7138  XXZ=             50.0224  XZZ=              1.0620  YZZ=            -18.0569
  YYZ=            -20.9914  XYZ=             16.0662
 Hexadecapole moment (field-independent basis, Debye-Ang**3):
 XXXX=          -9222.7633 YYYY=          -4590.7195 ZZZZ=          -2048.3234 XXXY=           -276.1282
 XXXZ=            266.5412 YYYX=            296.8964 YYYZ=           -308.4426 ZZZX=             31.7029
 ZZZY=             17.2133 XXYY=          -2398.7270 XXZZ=          -1763.8450 YYZZ=          -1215.2382
 XXYZ=             -0.6396 YYXZ=            -16.2918 ZZXY=            -23.6083
 N-N= 3.985799692367D+03 E-N=-1.225805272536D+04  KE= 1.766290568026D+03
  Exact polarizability: 402.511  25.605 355.667  17.018 -15.371 271.297
 Approx polarizability: 573.021  54.316 534.206  30.577 -32.685 435.314
   1 Symmetry operations used in ECPInt.
 ECPInt:  NShTT=   25878 NPrTT=  135610 LenC2=   22973 LenP2D=   71727.
 LDataN:  DoStor=T MaxTD1= 7 Len=  274
 Calling FoFJK, ICntrl=    100127 FMM=F ISym2X=0 I1Cent= 0 IOpClX= 0 NMat=1 NMatS=1 NMatT=0.
 Defaulting to unpruned grid for atomic number  46.
 Defaulting to unpruned grid for atomic number  46.
 Defaulting to unpruned grid for atomic number  46.
 Defaulting to unpruned grid for atomic number  46.
 Defaulting to unpruned grid for atomic number  46.
 Defaulting to unpruned grid for atomic number  46.
 Defaulting to unpruned grid for atomic number  46.
 Defaulting to unpruned grid for atomic number  46.
 Defaulting to unpruned grid for atomic number  46.
 Defaulting to unpruned grid for atomic number  46.
 Defaulting to unpruned grid for atomic number  46.
 Defaulting to unpruned grid for atomic number  46.
 Defaulting to unpruned grid for atomic number  46.
 Defaulting to unpruned grid for atomic number  46.
 Defaulting to unpruned grid for atomic number  46.
 Defaulting to unpruned grid for atomic number  46.
 Defaulting to unpruned grid for atomic number  46.
 Defaulting to unpruned grid for atomic number  46.
 Defaulting to unpruned grid for atomic number  46.
 Defaulting to unpruned grid for atomic number  46.
 Defaulting to unpruned grid for atomic number  46.
 Defaulting to unpruned grid for atomic number  46.
 Defaulting to unpruned grid for atomic number  46.
 Defaulting to unpruned grid for atomic number  46.
 Defaulting to unpruned grid for atomic number  46.
 Defaulting to unpruned grid for atomic number  46.
 Defaulting to unpruned grid for atomic number  46.
 Defaulting to unpruned grid for atomic number  46.
 Full mass-weighted force constant matrix:
 Low frequencies --- -225.4218   -6.9583   -3.7417   -0.0042   -0.0023   -0.0011
 Low frequencies ---   12.3066   27.2192   35.6947
 ******    1 imaginary frequencies (negative Signs) ****** 
 Diagonal vibrational polarizability:
      112.9548851      73.4229661      58.5948512
 Harmonic frequencies (cm**-1), IR intensities (KM/Mole), Raman scattering
 activities (A**4/AMU), depolarization ratios for plane and unpolarized
 incident light, reduced masses (AMU), force constants (mDyne/A),
 and normal coordinates:
                           1         2         3         4         5
                           A         A         A         A         A
       Frequencies ---  -225.4066   27.0806   35.3701   50.2773   56.6820
    Reduced masses ---     8.2025    6.0808    5.4175    5.0554    4.2049
   Force constants ---     0.2455    0.0026    0.0040    0.0075    0.0080
    IR Intensities ---     5.3040    0.8510    2.3585    0.8856    0.3491
 Coord Atom Element:
   1     1     6          0.00262   0.04802  -0.03299   0.01520   0.00372
   2     1     6         -0.02824  -0.02256   0.04008  -0.01746  -0.00013
   3     1     6         -0.00869   0.02133   0.06513   0.03303  -0.00573
   1     2     6         -0.00230   0.08944  -0.11419   0.04250  -0.02014
   2     2     6         -0.02175  -0.02440   0.09414  -0.06269   0.02179
   3     2     6          0.00322   0.01839   0.16813  -0.05449   0.03634
   1     3     6         -0.00530   0.09431  -0.14644   0.07166  -0.04301
   2     3     6         -0.01810  -0.04024   0.12783  -0.08038   0.04122
   3     3     6          0.00397   0.05600   0.19574  -0.13313   0.07648
   1     4     6         -0.00914   0.05792  -0.08862   0.07315  -0.03919
   2     4     6         -0.02106  -0.05227   0.09338  -0.04763   0.03321
   3     4     6          0.00479   0.09235   0.11237  -0.11952   0.06835
   1     5     1         -0.01390   0.05986  -0.10432   0.09651  -0.05528
   2     5     1         -0.01877  -0.06508   0.10876  -0.05688   0.04437
   3     5     1          0.01610   0.11972   0.12718  -0.17899   0.09630
   1     6     6          0.00209   0.01923  -0.00529   0.04461  -0.01476
   2     6     6         -0.02692  -0.05001   0.03669  -0.00174   0.00949
   3     6     6         -0.00021   0.08801   0.01104  -0.02860   0.02354
   1     7     7          0.00728   0.01523   0.01595   0.01620   0.00534
   2     7     7         -0.03971  -0.03534   0.01552   0.01007  -0.00378
   3     7     7         -0.01435   0.05416  -0.00741   0.04623  -0.00969
   1     8     1         -0.00811   0.12643  -0.21316   0.09396  -0.06331
   2     8     1         -0.01517  -0.04223   0.17438  -0.11892   0.06101
   3     8     1          0.00948   0.05580   0.28061  -0.20719   0.11349
   1     9     1         -0.00780   0.11680  -0.15434   0.04307  -0.02227
   2     9     1         -0.02285  -0.01237   0.10518  -0.08507   0.02463
   3     9     1          0.00997  -0.01185   0.22613  -0.06563   0.04044
   1    10    17         -0.00725  -0.02467   0.08177   0.05960  -0.01581
   2    10    17          0.00895  -0.07463  -0.00245   0.03958  -0.00385
   3    10    17          0.01256   0.12246  -0.09157  -0.02724   0.01926
   1    11     6         -0.00286   0.03738  -0.00594   0.00313   0.01763
   2    11     6         -0.02061  -0.00675   0.01060  -0.00687  -0.01508
   3    11     6         -0.00826  -0.01206   0.02634   0.07091  -0.02566
   1    12     8         -0.00138   0.06291   0.00063   0.01907   0.00983
   2    12     8         -0.00261   0.00643  -0.01113  -0.01787  -0.02918
   3    12     8          0.00110  -0.05722  -0.01060   0.02575  -0.02195
   1    13     7         -0.00932   0.00192   0.00441  -0.01049   0.03060
   2    13     7         -0.02235  -0.00267   0.00581   0.00501  -0.01465
   3    13     7         -0.01611  -0.00098   0.01570   0.10070  -0.02489
   1    14     6         -0.00954   0.04244   0.03217   0.01909   0.02411
   2    14     6          0.00448   0.02242  -0.03999  -0.01790  -0.04175
   3    14     6         -0.00189  -0.07876  -0.07186   0.00726  -0.01244
   1    15     1         -0.00734   0.03856  -0.00019   0.01053   0.01524
   2    15     1          0.01030   0.04083  -0.07331  -0.01824  -0.05118
   3    15     1         -0.00242  -0.11360  -0.12855  -0.01818  -0.02734
   1    16     1         -0.01089   0.06902   0.10671   0.04382   0.03916
   2    16     1          0.00634   0.01584  -0.03795  -0.01881  -0.05945
   3    16     1         -0.00285  -0.07856  -0.07976   0.00528  -0.00727
   1    17     6         -0.01355  -0.00727   0.00754  -0.00780   0.03405
   2    17     6         -0.00091   0.02074  -0.01932  -0.01799  -0.01600
   3    17     6         -0.00605  -0.04728  -0.03780   0.02718   0.00485
   1    18     6         -0.00344  -0.05796  -0.05937  -0.09360   0.06353
   2    18     6          0.00204   0.04157  -0.01523  -0.06640   0.03008
   3    18     6         -0.00196  -0.06775  -0.06342  -0.00634   0.01642
   1    19     1         -0.03235  -0.01178   0.03904   0.03250   0.02854
   2    19     1         -0.00042   0.01767  -0.02416  -0.01232  -0.02458
   3    19     1         -0.00305  -0.03788  -0.02874   0.00376   0.03164
   1    20    46          0.07639  -0.00284   0.02201   0.00790   0.01075
   2    20    46         -0.02085  -0.02284   0.01932   0.01710  -0.02573
   3    20    46          0.00034   0.02615  -0.00271   0.07149  -0.00670
   1    21     6          0.03509   0.05354   0.04010   0.03860   0.00125
   2    21     6          0.00122   0.08844  -0.05445   0.00957   0.08170
   3    21     6         -0.00350  -0.14777  -0.04071  -0.04208  -0.01347
   1    22     6          0.04207  -0.04398   0.02960   0.00070  -0.01714
   2    22     6          0.11541   0.03883  -0.03654   0.00830  -0.02634
   3    22     6          0.04769  -0.06421  -0.02621  -0.00516  -0.01694
   1    23     6         -0.00283   0.09223   0.01866   0.04253   0.02205
   2    23     6          0.13938   0.00441   0.02905   0.01432   0.01617
   3    23     6          0.09919  -0.04631   0.00587   0.00939   0.01733
   1    24     6          0.00255   0.01210   0.01868   0.01462   0.00574
   2    24     6          0.44351   0.00708   0.00638   0.01289  -0.02899
   3    24     6          0.22813  -0.02694  -0.00147   0.01530   0.00602
   1    25     6         -0.01752   0.11106   0.00665   0.04417   0.03636
   2    25     6          0.04058   0.05453  -0.01637   0.01280   0.06766
   3    25     6         -0.00920  -0.12228  -0.00009  -0.01906   0.02362
   1    26     1          0.04656   0.09554   0.05364   0.05818  -0.00426
   2    26     1          0.01161  -0.01530   0.05307   0.01684   0.02616
   3    26     1          0.26407  -0.02289  -0.01205   0.01106  -0.00149
   1    27     1          0.00568   0.17069   0.00709   0.06418   0.05021
   2    27     1         -0.01989   0.04875   0.00218   0.01730   0.10559
   3    27     1         -0.03436  -0.13847   0.00597  -0.02237   0.03285
   1    28     6         -0.14871  -0.03552   0.00578   0.04545   0.07398
   2    28     6         -0.01561  -0.07134  -0.02995   0.13665   0.03270
   3    28     6         -0.06922   0.06371   0.03719  -0.03589  -0.07113
   1    29     1         -0.09595  -0.06140   0.02198   0.08294   0.16819
   2    29     1         -0.02008  -0.07832  -0.06287   0.15948  -0.01287
   3    29     1         -0.03534   0.03714   0.01242   0.01670  -0.05312
   1    30     1         -0.12273  -0.03812   0.01173   0.04783   0.09119
   2    30     1          0.07283  -0.08869  -0.00356   0.15502   0.12452
   3    30     1         -0.04815   0.07859   0.02615  -0.05791  -0.12719
   1    31     6         -0.12055  -0.00436   0.00391  -0.00313  -0.01061
   2    31     6         -0.14194  -0.03186  -0.00072   0.05760  -0.00736
   3    31     6         -0.10270   0.05134   0.04072  -0.01835  -0.03320
   1    32     6         -0.24557  -0.00134   0.00047  -0.00964  -0.01999
   2    32     6         -0.26252  -0.01488  -0.01956   0.01119  -0.06607
   3    32     6         -0.17308   0.01710   0.03966   0.02793   0.06615
   1    33     6         -0.09428   0.02504  -0.00374  -0.06194  -0.11341
   2    33     6         -0.04611  -0.00802   0.03425   0.04492   0.02485
   3    33     6         -0.01764   0.09358   0.06419  -0.07540  -0.08538
   1    34     1         -0.09671   0.02427  -0.00256  -0.04881  -0.09304
   2    34     1         -0.06123  -0.01153   0.03806   0.08995   0.09817
   3    34     1          0.00343   0.10743   0.04854  -0.07983  -0.11662
   1    35     1         -0.05553   0.04617  -0.00931  -0.07221  -0.13734
   2    35     1          0.01142   0.02702   0.06534  -0.01799  -0.02603
   3    35     1         -0.04055   0.08105   0.06272  -0.06300  -0.06873
   1    36     1          0.02360   0.05609   0.03199   0.03690   0.00565
   2    36     1         -0.04872   0.11885  -0.08823   0.00785   0.10303
   3    36     1          0.00928  -0.21773  -0.03874  -0.05964  -0.02725
   1    37     6          0.06939  -0.03964   0.05110   0.01570  -0.03284
   2    37     6          0.00296   0.10577  -0.08168   0.00111   0.05042
   3    37     6         -0.01656  -0.10982  -0.05790  -0.03879  -0.01864
   1    38     8          0.08159  -0.11099   0.07859   0.00878  -0.07583
   2    38     8         -0.00728   0.17363  -0.14095  -0.01201   0.09152
   3    38     8         -0.01216  -0.11405  -0.09809  -0.06411  -0.02089
   1    39     6          0.00314  -0.11206   0.02190  -0.02180  -0.03675
   2    39     6          0.09249   0.02249  -0.04560  -0.00170  -0.08195
   3    39     6          0.03708  -0.05835  -0.02806  -0.00482  -0.03772
   1    40     1         -0.01177  -0.11825   0.02222  -0.02935  -0.02487
   2    40     1          0.08293  -0.00840  -0.05754   0.00102  -0.14185
   3    40     1          0.08051  -0.02234  -0.02324   0.01681  -0.03793
   1    41     1          0.02466  -0.13567   0.00304  -0.01105  -0.09009
   2    41     1          0.09271   0.02578  -0.04263  -0.00227  -0.07370
   3    41     1         -0.02737  -0.07392  -0.02724  -0.01973  -0.07128
   1    42     1         -0.03927  -0.12922   0.02509  -0.03760  -0.01388
   2    42     1          0.02877   0.03461  -0.03702  -0.01369  -0.07331
   3    42     1          0.02689  -0.08089  -0.02830  -0.01457  -0.01997
   1    43     1          0.06102   0.08136   0.06634   0.05263   0.00178
   2    43     1          0.01071   0.07109  -0.02960   0.01489   0.09417
   3    43     1         -0.01070  -0.12845  -0.06352  -0.04627  -0.02690
   1    44     1         -0.10434   0.10773  -0.02735   0.02940   0.06030
   2    44     1          0.06021   0.06949  -0.03946   0.00932   0.05330
   3    44     1         -0.05701  -0.14216   0.02002  -0.01852   0.04913
   1    45     1         -0.04174   0.13722  -0.00568   0.04613   0.04871
   2    45     1          0.12018  -0.02398   0.05889   0.01622   0.00167
   3    45     1         -0.03007  -0.02684   0.03383   0.02401   0.03711
   1    46     1         -0.09317   0.02622  -0.00387  -0.05532  -0.10462
   2    46     1          0.11667  -0.00394   0.00417   0.00069  -0.04791
   3    46     1          0.00890   0.01295   0.05731   0.03926   0.11255
   1    47     1         -0.22798  -0.02857  -0.01559   0.03970   0.01658
   2    47     1          0.00866  -0.08211  -0.04780   0.16209   0.02524
   3    47     1         -0.11972   0.08510   0.07023  -0.08545  -0.06043
   1    48     6         -0.05243  -0.02868  -0.00109   0.02025   0.05487
   2    48     6          0.02831  -0.01179  -0.05799  -0.01462  -0.14754
   3    48     6         -0.03950  -0.00262   0.04515   0.05243   0.12930
   1    49     1         -0.09762  -0.05170   0.01755   0.05591   0.13875
   2    49     1          0.04069  -0.01286  -0.06555  -0.01563  -0.16485
   3    49     1         -0.01699   0.00201   0.03352   0.04269   0.09259
   1    50     1         -0.08420  -0.02361  -0.00113   0.01496   0.04055
   2    50     1          0.17519  -0.00297  -0.07740  -0.03927  -0.18641
   3    50     1          0.07416  -0.02686   0.04741   0.07868   0.19873
   1    51     1          0.16261  -0.02972  -0.02252   0.00500   0.03660
   2    51     1          0.00860  -0.01353  -0.05889  -0.01126  -0.15042
   3    51     1         -0.13664   0.00264   0.06033   0.05293   0.14780
   1    52     8         -0.07706   0.02202  -0.00670  -0.11397  -0.19683
   2    52     8         -0.06314  -0.02169   0.01835   0.06111   0.02581
   3    52     8          0.03899   0.13299   0.10942  -0.13891  -0.11392
   1    53     1         -0.13812   0.03084  -0.01550  -0.13935  -0.24239
   2    53     1         -0.04092  -0.00590   0.03935   0.05592   0.04903
   3    53     1          0.00475   0.15897   0.12400  -0.16930  -0.13267
   1    54     6         -0.00016  -0.05305  -0.13979  -0.18733   0.03408
   2    54     6          0.00217   0.04357  -0.00452  -0.07480   0.05852
   3    54     6         -0.00305  -0.07369  -0.07978   0.02169  -0.04528
   1    55     1          0.00477  -0.07435  -0.17253  -0.20947   0.05406
   2    55     1          0.00318   0.05417  -0.01164  -0.11929   0.08829
   3    55     1         -0.00089  -0.08273  -0.09382   0.01205  -0.03665
   1    56     1          0.00053  -0.05082  -0.15868  -0.20979   0.02544
   2    56     1          0.00176   0.03176   0.04237  -0.01693   0.09303
   3    56     1         -0.00831  -0.05432  -0.05039   0.04807  -0.07760
   1    57     1         -0.00225  -0.03264  -0.15384  -0.21935   0.00164
   2    57     1          0.00211   0.04699  -0.03655  -0.09595   0.01784
   3    57     1         -0.00098  -0.08916  -0.10616   0.02578  -0.06462
   1    58     6         -0.00325  -0.06605  -0.04119  -0.07196   0.07749
   2    58     6          0.00162   0.06911  -0.06768  -0.12767  -0.01375
   3    58     6          0.00491  -0.11636  -0.12620  -0.10553   0.06719
   1    59     1         -0.00399  -0.06944   0.01720   0.00109   0.10077
   2    59     1          0.00024   0.06871  -0.07737  -0.12525  -0.04383
   3    59     1          0.00807  -0.11480  -0.11538  -0.12514   0.13108
   1    60     1         -0.00112  -0.10243  -0.08806  -0.13458   0.09234
   2    60     1          0.00483   0.08116  -0.06696  -0.15974   0.03956
   3    60     1          0.00594  -0.12996  -0.14459  -0.13192   0.07599
   1    61     1         -0.00452  -0.03350  -0.03856  -0.06587   0.05131
   2    61     1         -0.00056   0.07909  -0.10044  -0.14944  -0.06821
   3    61     1          0.00378  -0.14272  -0.16875  -0.13910   0.03219
   1    62     6          0.00083  -0.10720  -0.06866  -0.10906   0.10980
   2    62     6          0.00395   0.03004   0.02689  -0.05306   0.09700
   3    62     6         -0.00361  -0.03562  -0.00969   0.02253   0.04806
   1    63     1          0.00644  -0.14103  -0.10890  -0.15637   0.12054
   2    63     1          0.00731   0.04243   0.04362  -0.07112   0.13204
   3    63     1         -0.00165  -0.04848  -0.02508   0.00582   0.05065
   1    64     1         -0.00217  -0.11711  -0.02986  -0.06741   0.14297
   2    64     1          0.00294   0.03022   0.01566  -0.05300   0.07768
   3    64     1          0.00092  -0.03418   0.01421   0.01047   0.09897
   1    65     1          0.00130  -0.10315  -0.07633  -0.11684   0.10175
   2    65     1          0.00355   0.00896   0.05346  -0.02813   0.13291
   3    65     1         -0.01052  -0.00144   0.02325   0.07123   0.02378
                           6         7         8         9        10
                           A         A         A         A         A
       Frequencies ---    61.9330   68.0434   74.8831   84.1198  100.2141
    Reduced masses ---     3.1688    3.9885    9.5327    6.4672    4.4373
   Force constants ---     0.0072    0.0109    0.0315    0.0270    0.0263
    IR Intensities ---     0.2381    0.1196    2.5070    0.6672    0.4684
 Coord Atom Element:
   1     1     6          0.00289   0.02271   0.02856   0.03930   0.02913
   2     1     6          0.01427   0.04553   0.00381   0.05472  -0.01312
   3     1     6          0.01636   0.02160   0.04852  -0.02308   0.04991
   1     2     6         -0.00620   0.05641  -0.04808   0.01615   0.01881
   2     2     6          0.01935   0.04063   0.01513   0.05594  -0.02602
   3     2     6          0.02496   0.01189   0.06739  -0.02375   0.02373
   1     3     6         -0.00343   0.09329  -0.06386  -0.01510   0.00902
   2     3     6          0.01762   0.00062   0.04743   0.09010  -0.01016
   3     3     6          0.01230  -0.01799   0.01386  -0.00260   0.00723
   1     4     6          0.00719   0.08838   0.00000  -0.01383   0.01041
   2     4     6          0.01002  -0.02358   0.05781   0.10786   0.01532
   3     4     6         -0.00389  -0.02362  -0.05606   0.00314   0.01686
   1     5     1          0.01085   0.11255  -0.00240  -0.02978   0.00379
   2     5     1          0.00730  -0.05047   0.07598   0.12568   0.02774
   3     5     1         -0.00999  -0.03884  -0.09636   0.01301   0.00753
   1     6     6          0.01334   0.04684   0.07075   0.01502   0.02124
   2     6     6          0.00748  -0.00966   0.04531   0.09820   0.02411
   3     6     6         -0.00817  -0.00364  -0.06404  -0.00750   0.03813
   1     7     7          0.01120   0.02114   0.08201   0.03310   0.03080
   2     7     7          0.00564   0.01655   0.01534   0.07528   0.00739
   3     7     7          0.00060   0.00760  -0.01279  -0.00456   0.05729
   1     8     1         -0.00950   0.12383  -0.12403  -0.03767  -0.00010
   2     8     1          0.02056  -0.00868   0.05785   0.09543  -0.01959
   3     8     1          0.01750  -0.03291   0.02759   0.00536  -0.01257
[...]
 0009765,0.00020677,-0.00000298,0.00003584,0.00000684,0.00000149,0.0000
 0020,-0.00000075,-0.00004362,-0.00000721,-0.00000917,0.00002288,0.0000
 1300,-0.00000376,0.00000411,0.00000412,0.00000016,0.00000010,-0.000005
 18,0.00000147,0.00000053,0.00000307,0.00000094,-0.00000195,-0.00000062
 ,-0.00000169,-0.00000119,0.00000060,0.00000058,-0.00000130,0.00000137,
 -0.00000103,-0.00000086,0.00000374,-0.00001263,-0.00002379,0.00000066,
 0.00000022,-0.00000175,-0.00000412,0.00002053,0.00002139,0.00000750,0.
 00000999,0.00000026,0.00000049,-0.00000341,0.00001058,-0.00000128,-0.0
 0000677,-0.00000430,0.00000005,0.00000439,0.00035474,-0.00040669,-0.00
 013045,-0.00003056,0.00011944,-0.00006213,-0.00069501,0.00097068,0.000
 94547,0.00049694,-0.00059994,-0.00001675,-0.00015751,-0.00005277,-0.00
 002394,-0.00008182,0.00030067,-0.00023700,-0.00096608,0.00016933,-0.00
 048982,0.00005109,-0.00001084,-0.00015032,0.00015742,0.00034441,-0.000
 18894,-0.00018483,-0.00014348,-0.00009115,0.00331179,-0.04562299,-0.01
 226768,-0.00606810,0.04856943,-0.00003526,-0.00002254,-0.00000423,0.00
 006574,0.00005247,0.00000292,-0.00003968,-0.00002324,-0.00001220,0.000
 04459,-0.00002917,0.00004502,-0.00000060,-0.00000053,0.00000149,-0.000
 04109,0.00006981,-0.00009185,0.00002915,0.00002148,0.00002944,0.000004
 78,0.00000308,-0.00000097,-0.00000515,-0.00002297,0.00000470,0.0000427
 6,-0.00001598,0.00004568,-0.00010044,-0.00024541,0.00004195,0.00017793
 ,0.00046987,-0.00009094,-0.00000353,-0.00008643,0.00033918,0.00072890,
 -0.00070549,-0.00075701,-0.00005537,0.00003793,0.00006308,-0.00014889,
 0.00026473,-0.00020447,-0.00323820,0.00302526,-0.00096091,0.00669865,-
 0.00107997,-0.01871477,-0.00004717,-0.00007084,0.00039525,-0.00007828,
 0.00005073,-0.00008687,0.00000652,0.00000205,0.00000647,0.00009061,-0.
 00000032,0.00003649,0.00003984,0.00000447,-0.00001385,-0.00007187,-0.0
 0000671,-0.00001211,-0.00000926,-0.00000078,0.00001723,0.00000936,0.00
 001017,0.00000011,0.00001050,-0.00000372,0.00000593,-0.00003878,-0.000
 00121,-0.00000656,0.00000347,0.00000233,0.00000080,0.00001793,0.000014
 32,0.00002408,-0.00001155,-0.00002103,0.00001681,-0.00000365,0.0000553
 7,0.00001945,-0.00026510,0.00017435,-0.00006553,0.00012294,0.00000290,
 0.00001914,0.00003515,-0.00000322,0.00001335,0.00000195,-0.00000199,0.
 00000012,-0.00008796,-0.00001206,-0.00003797,0.00005022,0.00001960,0.0
 0000145,-0.00000522,0.00000145,-0.00000017,0.00000221,0.00000209,0.000
 00181,-0.00000397,0.00000075,0.00000012,0.00000022,-0.00000191,-0.0000
 0120,-0.00000171,0.00000034,0.00000013,-0.00000284,0.00000177,-0.00000
 164,-0.00000313,-0.00000705,-0.00001031,-0.00000024,-0.00000537,-0.000
 00234,0.00001421,-0.00000427,0.00000077,0.00000703,-0.00000032,0.00000
 341,-0.00000261,-0.00000067,0.00000266,0.00000617,0.00000236,-0.000000
 60,-0.00000291,0.00000177,-0.00000124,0.00007341,-0.00016091,0.0000010
 3,-0.00000128,0.00003440,-0.00003525,0.00060297,-0.00142749,0.00083972
 ,-0.00007430,0.00042161,0.00048904,-0.00005337,0.00010395,-0.00006169,
 -0.00019331,-0.00016424,0.00032422,0.00142555,-0.00049347,0.00056051,-
 0.00005149,0.00006163,-0.00008205,-0.00085785,-0.00001347,0.00017296,-
 0.00005882,0.00002073,0.00043226,0.08804292,-0.01127167,-0.28128400,-0
 .09436223,0.01026532,0.30405139,0.00000815,0.00003070,0.00000234,-0.00
 000930,-0.00001139,-0.00001134,0.00000921,0.00000241,0.00000220,0.0000
 0221,0.00000373,-0.00001573,0.00000182,-0.00000039,-0.00000324,-0.0000
 0637,-0.00000448,-0.00001522,-0.00003264,0.00007126,0.00006558,-0.0000
 0113,-0.00000068,0.00000093,0.00000165,0.00000178,-0.00000054,-0.00000
 410,0.00000304,0.00000964,-0.00012418,0.00014079,-0.00005649,0.0000368
 1,-0.00010873,-0.00003356,-0.00021651,0.00001930,0.00030836,-0.0000691
 1,-0.00001962,0.00015062,0.00001428,0.00005544,0.00000924,0.00002260,-
 0.00001475,0.00001152,0.00034391,-0.00047894,0.00039156,0.00015203,0.0
 1521052,0.00656387,0.00023731,-0.00014613,-0.00006904,0.00020019,-0.00
 008404,-0.00008076,0.00000922,-0.00000866,-0.00000087,0.00009557,0.000
 01482,0.00004051,0.00001015,-0.00005627,-0.00001195,-0.00009919,-0.000
 04267,-0.00003424,-0.00000077,0.00001744,0.00001469,0.00002723,0.00001
 939,0.00000827,0.00000568,-0.00000545,0.00000272,0.00010397,0.00015983
 ,0.00000397,0.00000386,0.00000907,-0.00006627,-0.00000613,-0.00002148,
 0.00003618,0.00000567,-0.00047641,-0.00004559,0.00006220,0.00003857,-0
 .00014042,-0.00072469,0.00075061,0.00066759,-0.00009690,0.00061729,0.0
 0135528,-0.00041937,0.00005182,-0.00028384,0.00000389,0.00000147,-0.00
 000034,-0.00011222,-0.00002797,-0.00002734,0.00006362,0.00004385,-0.00
 001166,0.00000543,0.00000097,-0.00000475,0.00000168,-0.00000821,0.0000
 0298,0.00000126,0.00000883,-0.00000102,-0.00000445,0.00000008,-0.00000
 421,-0.00000042,0.00000448,0.00000494,-0.00001112,0.00000619,0.0000033
 6,0.00000297,0.00000472,-0.00002132,-0.00005391,-0.00000451,0.00000603
 ,0.00001048,-0.00001379,0.00003730,0.00003345,0.00002005,0.00001252,-0
 .00000277,0.00000054,-0.00000883,0.00001906,-0.00000373,-0.00001086,-0
 .00000638,0.00000043,0.00000994,0.00028838,-0.00058187,-0.00040351,0.0
 0004816,0.00020803,0.00001659,-0.00185832,0.00205555,-0.00239358,-0.00
 003449,-0.00027019,-0.00020088,0.00020709,0.00016119,-0.00003728,0.000
 43372,0.00117273,0.00022428,0.00096381,0.00110127,0.00064231,-0.000455
 27,0.00002477,-0.00054126,-0.00006765,0.00003964,0.00019316,0.00017388
 ,-0.00027135,0.00012822,-0.04880931,-0.02514543,-0.00867593,0.00054144
 ,0.01087142,0.00289885,0.04967110,0.00003164,0.00002240,-0.00005542,-0
 .00002570,-0.00000365,-0.00000077,0.00002620,0.00002403,0.00000654,-0.
 00001244,0.00002406,-0.00003475,0.00000426,-0.00000065,-0.00000602,0.0
 0003386,-0.00004281,0.00003131,-0.00004410,0.00007802,0.00006636,0.000
 00118,-0.00000117,-0.00000280,0.00000769,0.00000382,-0.00001629,-0.000
 03102,0.00001351,-0.00001965,0.00015131,0.00009419,-0.00011281,0.00000
 522,0.00026204,-0.00005396,-0.00020905,0.00016152,0.00030511,0.0001494
 4,0.00007288,0.00018345,-0.00008438,0.00001669,-0.00011154,-0.00001346
 ,-0.00003466,0.00007253,-0.00019623,-0.00013358,-0.00140991,-0.0025504
 8,-0.01912641,-0.00779696,-0.00020829,0.00027537,0.00094584,0.00021099
 ,-0.00009479,0.00001785,0.00000436,-0.00001031,-0.00000457,0.00004952,
 0.00000772,0.00003029,-0.00000056,-0.00003833,-0.00000353,-0.00006062,
 -0.00003587,-0.00002725,0.00000128,0.00001034,0.00000296,0.00001163,0.
 00000729,0.00000589,0.00000065,-0.00000294,0.00000019,-0.00000318,0.00
 013760,0.00005591,0.00002971,0.00000430,-0.00004173,0.00001760,-0.0000
 5826,0.00003146,0.00015035,-0.00035015,-0.00007716,0.00005861,0.000029
 83,-0.00010323,-0.00025161,-0.00033104,-0.00112107,0.00145839,-0.00068
 307,-0.00053564,-0.00012856,0.00008333,0.00026293,0.00000272,0.0000022
 2,-0.00000029,-0.00007646,-0.00002689,-0.00001084,0.00004123,0.0000390
 3,-0.00001182,0.00000443,0.00000175,-0.00000404,0.00000061,-0.00001084
 ,0.00000157,0.00000363,0.00000991,-0.00000145,-0.00000444,0.00000202,-
 0.00000360,0.00000017,0.00000425,0.00000585,-0.00000622,0.00000529,0.0
 0000364,0.00000297,0.00001314,-0.00001114,-0.00003327,-0.00000116,0.00
 000333,-0.00000031,-0.00000925,0.00003821,0.00002692,0.00001671,0.0000
 0601,-0.00000429,-0.00000202,-0.00000640,0.00001534,-0.00000364,-0.000
 00584,-0.00000603,0.00000208,0.00000964,0.00060585,-0.00042868,-0.0002
 1572,-0.00004231,0.00013949,-0.00002917,0.00310413,-0.00176555,0.00418
 549,-0.00004877,0.00035082,-0.00000427,-0.00011854,0.00038950,0.000049
 14,0.00007308,-0.00138352,-0.00056411,-0.00163760,0.00071026,-0.000658
 79,0.00067488,0.00056765,0.00025951,0.00011786,-0.00011438,0.00001241,
 -0.00002839,0.00036115,0.00019191,-0.02480656,-0.28049847,-0.07868555,
 -0.00029928,-0.00003398,0.00059127,0.02302432,0.30695037,0.00000525,0.
 00001470,0.00001232,-0.00001568,-0.00002113,-0.00000437,0.00001044,0.0
 0000729,0.00000067,-0.00000810,0.00000234,-0.00001025,0.00000050,0.000
 00099,-0.00000007,0.00001557,-0.00000877,0.00001594,-0.00001761,-0.000
 01204,0.00001685,-0.00000137,-0.00000081,0.00000033,-0.00000046,0.0000
 0628,0.00000023,-0.00000767,0.00000126,-0.00000503,-0.00007214,0.00013
 388,-0.00000822,0.00002333,-0.00023726,0.00004447,0.00003989,-0.000194
 32,-0.00003561,-0.00017426,-0.00000970,0.00020295,0.00003526,0.0000042
 5,0.00002946,0.00002044,-0.00002760,0.00001798,0.00033029,0.00093812,0
 .00122546,0.00232647,0.01777717,0.00549256,-0.00003041,-0.00003200,-0.
 00036190,0.00007413,0.00007572,-0.00002555,-0.00000611,-0.00000294,-0.
 00000534,-0.00006229,0.00000165,-0.00002702,-0.00002988,-0.00001834,0.
 00000390,0.00004937,-0.00000086,0.00001370,0.00001037,0.00000226,-0.00
 000632,0.00000346,0.00000025,0.00000170,-0.00000722,-0.00000047,-0.000
 00590,0.00002031,-0.00000969,-0.00000334,-0.00001102,0.00000223,0.0000
 0145,-0.00001909,0.00000045,-0.00002666,-0.00002512,0.00004241,-0.0000
 9024,0.00000336,-0.00003674,0.00003769,0.00090358,-0.00082226,-0.00059
 534,0.00108726,-0.00103420,-0.00104812,-0.00033774,0.00005614,0.000172
 45,-0.00000180,0.00000133,0.00000014,0.00006830,0.00001022,0.00002539,
 -0.00003777,-0.00001360,0.00000115,0.00000075,-0.00000255,0.00000409,-
 0.00000211,-0.00000098,-0.00000285,0.00000329,-0.00000097,-0.00000040,
 -0.00000204,0.00000082,0.00000062,0.00000225,0.00000116,0.00000009,-0.
 00000145,0.00000021,0.00000475,0.00000363,0.00000049,0.00000874,0.0000
 0290,0.00000029,0.00000463,-0.00000766,0.00000132,0.00000285,-0.000014
 63,-0.00000161,-0.00000643,0.00000008,-0.00000015,-0.00000117,-0.00000
 657,-0.00000316,0.00000385,0.00000177,-0.00000085,0.00000209,-0.000023
 22,0.00033638,-0.00003131,-0.00002496,-0.00001831,0.00014090,-0.001838
 65,0.00190633,-0.00196979,-0.00027458,0.00014400,0.00023684,0.00002108
 ,-0.00009096,-0.00024055,-0.00020495,0.00101332,0.00073572,0.00068978,
 0.00021206,0.00055479,-0.00022840,-0.00012595,0.00006963,-0.00002581,-
 0.00021860,-0.00010021,0.00029047,0.00003350,-0.00004944,-0.00852511,-
 0.07888623,-0.07201911,-0.00396755,-0.02776011,-0.00767943,0.00950890,
 0.08631153,0.07688067,-0.00001496,0.00004050,0.00005293,-0.00000907,-0
 .00001907,-0.00001143,0.00000674,-0.00000052,-0.00000630,0.00001250,-0
 .00000151,0.00000228,0.00000037,0.00000317,-0.00000056,-0.00001164,0.0
 0001541,-0.00003797,0.00008720,-0.00001372,-0.00002777,-0.00000211,-0.
 00000014,0.00000194,-0.00000510,-0.00000139,0.00000272,0.00001291,-0.0
 0000721,0.00002011,0.00004118,0.00081897,-0.00009556,0.00088576,-0.000
 37445,0.00006069,0.00062148,-0.00121324,0.00241391,-0.00035807,-0.0002
 3694,-0.00010952,0.00002691,-0.00011406,0.00008491,-0.00000132,0.00005
 784,-0.00005754,-0.00117192,-0.00035308,0.00081539,-0.01526196,-0.0050
 0096,0.00033757,-0.00002747,-0.00000526,-0.00002303,0.00022007,0.00006
 444,-0.00051837,0.00000396,-0.00000396,-0.00000068,-0.00001338,-0.0000
 1252,-0.00001610,-0.00006708,-0.00000306,-0.00000304,0.00010206,-0.000
 00535,-0.00010049,0.00002450,0.00000171,-0.00001666,0.00004771,-0.0000
 1478,-0.00000823,-0.00000366,0.00000023,0.,-0.00006192,0.00001574,0.00
 003669,0.00001383,-0.00000591,0.00001799,0.00000447,-0.00000950,-0.000
 00113,0.00006386,0.00012776,0.00002596,0.00012953,-0.00001015,0.000037
 21,-0.00017806,-0.00000424,-0.00056170,-0.00013680,0.00038183,-0.00003
 328,-0.00003378,0.00063389,0.00060099,-0.00000375,-0.00000066,0.000001
 93,0.00005547,0.00004344,0.00000141,-0.00003467,-0.00002739,0.00002071
 ,0.00000397,-0.00001350,0.00000211,-0.00000150,0.00000004,0.00000239,0
 .00000572,-0.00000367,0.00000155,-0.00000533,0.00000357,0.00000039,0.0
 0000325,0.00000049,-0.00000081,-0.00000433,0.00000305,0.00000476,0.000
 07045,-0.00001169,-0.00001772,0.00001122,-0.00001239,-0.00001090,0.000
 00560,0.00001134,0.00000046,0.00000543,-0.00000017,0.00000359,-0.00000
 280,-0.00000471,0.00000308,-0.00000322,-0.00000266,0.00000140,-0.00000
 113,0.00000321,-0.00000076,0.00001222,0.00020479,0.00028626,-0.0000629
 1,-0.00006424,-0.00001821,0.00042136,-0.00109665,0.00006705,-0.0001081
 3,0.00001054,-0.00005463,0.00026436,0.00061329,0.00010375,0.00027442,0
 .00012670,-0.00001162,-0.00110273,0.00366070,-0.00274083,0.00019463,-0
 .00012264,0.00004297,0.00048946,0.00001430,-0.00000794,-0.00106372,-0.
 00040645,-0.00018244,-0.29384186,-0.06201480,-0.00505816,-0.00894915,-
 0.00251275,-0.00129746,-0.00059645,0.00083013,0.00046095,0.31901740,0.
 00002778,-0.00006259,0.00004556,0.00001280,0.00002557,0.00001802,-0.00
 001781,-0.00001849,-0.00000716,0.00001179,-0.00000132,0.00004160,-0.00
 000410,0.00000536,0.00000329,-0.00009727,0.00000729,-0.00005999,0.0001
 7112,-0.00002302,-0.00020568,0.00000155,0.00000078,0.00000078,-0.00000
 243,-0.00000360,0.00000555,0.00003542,-0.00002104,0.00002494,0.0000976
 2,-0.00011848,0.00021078,-0.00002699,-0.00000897,0.00001267,-0.0000747
 2,-0.00067856,0.00122137,0.00011911,-0.00010540,-0.00019405,0.00003192
 ,0.00003436,-0.00001797,-0.00001460,0.00003831,-0.00003745,-0.00047609
 ,0.00070504,-0.00042220,0.01952623,0.00489475,-0.00148428,-0.00005300,
 -0.00004215,0.00006909,-0.00028794,0.00037815,0.00014842,-0.00001605,0
 .00002433,0.00000546,-0.00004767,-0.00000509,0.00001021,0.00001061,0.0
 0011156,-0.00000039,0.00005146,0.00001740,-0.00005402,0.00000685,-0.00
 004159,0.00001165,-0.00001129,0.00002151,-0.00001469,0.00000383,0.0000
 0261,0.00000011,-0.00006827,-0.00007101,0.00001387,-0.00000029,0.00000
 045,0.00003521,0.00001077,0.00000518,-0.00001180,0.00004748,0.00028868
 ,0.00007908,0.00003861,-0.00001914,0.00002982,0.00013737,-0.00075369,-
 0.00064920,-0.00022134,-0.00026332,-0.00016220,0.00065510,-0.00088236,
 -0.00029051,-0.00000736,-0.00000853,0.00000251,0.00009780,0.00003852,-
 0.00000560,-0.00005439,-0.00005363,0.00002584,-0.00000898,-0.00000593,
 0.00002440,-0.00000581,0.00000648,-0.00000664,-0.00000004,-0.00001139,
 0.00000393,-0.00000274,-0.00000573,0.00000414,0.00000215,-0.00000391,-
 0.00000679,-0.00000026,-0.00000181,-0.00000107,0.00002084,-0.00007050,
 0.00000475,0.00003642,-0.00001333,-0.00000879,0.00000282,0.00000868,-0
 .00000787,0.00000355,0.00000372,0.00000769,-0.00000220,-0.00000275,0.0
 0000596,-0.00000882,0.00000041,0.00000270,-0.00000581,0.00000023,0.000
 00182,-0.00006392,0.00036015,0.00029478,-0.00009346,-0.00007461,-0.000
 02157,0.00067955,0.00143317,-0.00012089,0.00004888,-0.00002856,-0.0000
 5452,-0.00008425,-0.00063884,0.00001042,-0.00026452,0.00018213,-0.0000
 0484,0.00154851,-0.00249757,0.00222434,0.00015120,0.00022646,0.0002742
 1,-0.00013225,-0.00023985,-0.00001708,0.00115380,0.00063638,0.00038597
 ,-0.06287382,-0.06432038,-0.00182823,0.00242848,-0.00051304,0.00011412
 ,-0.02816123,-0.00566850,0.00055278,0.06601830,0.06782104,-0.00000501,
 0.00007559,0.00001337,-0.00005756,-0.00005570,-0.00001572,0.00003654,0
 .00002176,0.00001539,-0.00005982,0.00002706,-0.00005210,0.00000004,-0.
 00000371,0.00000324,0.00012493,-0.00007320,0.00017169,-0.00005223,-0.0
 0005606,-0.00003762,-0.00000642,-0.00000243,0.00000006,-0.00000175,0.0
 0001401,0.00000241,-0.00006214,0.00002303,-0.00007682,-0.00018727,0.00
 077216,-0.00032339,0.00058560,-0.00030107,0.00012951,0.00005055,0.0009
 3900,-0.00178153,-0.00022943,0.00001574,0.00022539,0.00001574,-0.00008
 386,0.00006528,0.00004243,-0.00002195,0.00003496,-0.00084803,-0.000876
 50,0.00068964,-0.01819917,-0.00586353,-0.00108653,-0.00005620,-0.00008
 985,-0.00016369,0.00057941,0.00049354,-0.00049577,-0.00001048,-0.00001
 238,-0.00001521,-0.00028072,0.00001966,-0.00012894,-0.00008935,-0.0000
 1581,0.00006381,0.00031585,-0.00012295,0.00016017,0.00001717,0.0000089
 3,-0.00006205,-0.00002664,-0.00005234,-0.00000592,-0.00002916,0.000012
 68,-0.00001191,-0.00001752,0.00005414,0.00000304,0.00000379,-0.0000093
 4,-0.00001240,-0.00000297,-0.00000833,-0.00001072,0.00000681,-0.000068
 27,-0.00012364,0.00009100,-0.00017226,-0.00000947,0.00031100,-0.000437
 43,-0.00004207,-0.00010663,-0.00045604,-0.00022440,0.00005508,-0.00022
 447,-0.00012353,-0.00000150,0.00000800,-0.00000456,0.00024058,0.000043
 25,0.00012850,-0.00013240,-0.00006192,-0.00001073,-0.00000021,-0.00000
 428,0.00002485,-0.00000916,-0.00000351,-0.00002305,0.00000957,-0.00000
 483,0.00000447,-0.00001247,-0.00000402,-0.00000141,-0.00000108,-0.0000
 0135,-0.00000529,0.00001506,-0.00000996,-0.00000152,0.00001667,0.00005
 965,0.00002883,0.00000270,0.00001478,0.00001217,0.00000784,0.00000131,
 0.00001774,0.00000339,0.00003795,0.00000242,-0.00000058,-0.00000595,-0
 .00000760,-0.00001218,-0.00000995,0.00000488,-0.00001215,-0.00000197,0
 .00000948,-0.00007650,0.00020942,-0.00001836,-0.00000646,-0.00002465,0
 .00003247,0.00058696,-0.00080681,0.00012606,0.00013450,0.00008060,-0.0
 0002497,0.00016009,0.00009921,0.00044703,0.00004994,-0.00011274,-0.000
 17239,-0.00139005,0.00288903,-0.00224001,0.00029648,0.00011922,-0.0000
 1290,-0.00017981,0.00005109,0.00026254,-0.00129804,-0.00006914,0.00027
 316,-0.00407877,-0.00149694,-0.04647847,0.02838791,0.00770705,0.002210
 01,-0.01012256,-0.00194004,-0.00160709,0.00551479,-0.00023235,0.050249
 22\\-0.00000065,-0.00000013,-0.00000111,-0.00000057,-0.00000113,-0.000
 00101,-0.00000102,0.00000034,-0.00000116,-0.00000064,0.00000037,-0.000
 00023,-0.00000129,0.00000048,-0.00000074,-0.00000130,-0.00000001,-0.00
 000085,-0.00000027,0.00000077,0.00000062,-0.00000084,-0.00000067,-0.00
 000126,-0.00000079,-0.00000084,-0.00000112,-0.00000048,0.00000083,-0.0
 0000088,-0.00000279,0.00000143,-0.00000075,-0.00000036,-0.00000043,0.0
 0000029,0.00000513,-0.00000419,-0.00000224,0.00000080,-0.00000121,-0.0
 0000243,-0.00000047,-0.00000236,-0.00000273,0.00000219,-0.00000073,-0.
 00000143,-0.00000468,-0.00000316,-0.00000056,0.00000254,0.00000106,-0.
 00000185,-0.00000221,0.00000108,0.00000470,0.00000028,-0.00000410,-0.0
 0000035,0.00000032,0.00000153,0.00000276,0.00000117,-0.00000276,-0.000
 00210,-0.00000201,-0.00000199,0.00000102,-0.00000030,0.00001027,0.0000
 0616,0.00000081,0.00000150,0.00000086,0.00000059,0.00000153,0.00000087
 ,0.00000022,0.00000102,0.00000187,0.00000184,0.00000226,0.00000127,0.0
 0000139,-0.00000348,-0.00000080,0.00000256,-0.00000225,-0.00000263,-0.
 00000118,-0.00000267,-0.00000412,-0.00000740,-0.00000174,-0.00000029,0
 .00000031,-0.00000273,0.00000146,0.00000333,-0.00000277,-0.00000236,-0
 .00000005,0.00000349,0.00000143,-0.00000020,0.00000282,0.00000289,0.00
 000049,-0.00000174,-0.00000082,0.00000049,-0.00000039,0.00000007,0.000
 00011,0.00000325,0.00000177,0.00000113,-0.00000046,-0.00000006,-0.0000
 0163,0.00000033,0.00000093,0.00000193,0.00000177,0.00000157,-0.0000027
 7,0.00000218,0.00000080,-0.00000045,0.00000181,0.00000100,-0.00000128,
 0.00000142,0.00000126,0.00000411,0.00000403,0.00000287,-0.00000021,-0.
 00000250,0.00000320,0.00000075,0.00000222,0.00000101,0.00000483,0.0000
 0212,0.00000217,0.00000151,-0.00000280,0.00000229,-0.00000089,0.000001
 21,-0.00000053,0.00000671,0.00000011,0.00000343,-0.00000203,-0.0000000
 2,-0.00000124,-0.00000294,0.00000113,-0.00000363,-0.00000360,0.0000000
 8,-0.00000264,-0.00000080,-0.00000133,0.00000119,0.00000202,-0.0000005
 3,-0.00000312,-0.00000020,-0.00000226,-0.00000031,-0.00000055,0.000001
 21,-0.00000536,0.00000092,-0.00000521,-0.00000086,-0.00000141,0.000001
 11,0.00000227,0.00000044,0.00000273,0.00000109,0.00000053,0.00000120,-
 0.00000043,-0.00000123,-0.00000074,0.00000104,0.00000002,-0.00000129,-
 0.00000214\\\@


            THE IRISH PIG
 'TWAS AN EVENING IN NOVEMBER,
 AS I VERY WELL REMEMBER
 I WAS STROLLING DOWN THE STREET IN DRUNKEN PRIDE,
 BUT MY KNEES WERE ALL A'FLUTTER
 SO I LANDED IN THE GUTTER,
 AND A PIG CAME UP AND LAY DOWN BY MY SIDE.

 YES, I LAY THERE IN THE GUTTER
 THINKING THOUGHTS I COULD NOT UTTER
 WHEN A COLLEEN PASSING BY DID SOFTLY SAY,
 'YE CAN TELL A MAN THAT BOOZES
 BY THE COMPANY THAT HE CHOOSES.' -
 AT THAT, THE PIG GOT UP AND WALKED AWAY!
     -- THE ECONOMIST, AUGUST 23, 1986
 Job cpu time:       2 days 16 hours 56 minutes 13.4 seconds.
 File lengths (MBytes):  RWF=   7485 Int=      0 D2E=      0 Chk=     25 Scr=      1
 Normal termination of Gaussian 09 at Fri Feb  2 21:43:18 2018.
