 Entering Gaussian System, Link 0=g09
 Initial command:
 /sw/group/lms/sw/g09_D01/g09/l1.exe "/work/job.575607/Gau-21557.inp" -scrdir="/work/job.575607/"
 Default is to use a total of  28 processors:
                               28 via shared-memory
                                1 via Linda
 Entering Link 1 = /sw/group/lms/sw/g09_D01/g09/l1.exe PID=     21558.
  
 Copyright (c) 1988,1990,1992,1993,1995,1998,2003,2009,2013,
            Gaussian, Inc.  All Rights Reserved.
  
 This is part of the Gaussian(R) 09 program.  It is based on
 the Gaussian(R) 03 system (copyright 2003, Gaussian, Inc.),
 the Gaussian(R) 98 system (copyright 1998, Gaussian, Inc.),
 the Gaussian(R) 94 system (copyright 1995, Gaussian, Inc.),
 the Gaussian 92(TM) system (copyright 1992, Gaussian, Inc.),
 the Gaussian 90(TM) system (copyright 1990, Gaussian, Inc.),
 the Gaussian 88(TM) system (copyright 1988, Gaussian, Inc.),
 the Gaussian 86(TM) system (copyright 1986, Carnegie Mellon
 University), and the Gaussian 82(TM) system (copyright 1983,
 Carnegie Mellon University). Gaussian is a federally registered
 trademark of Gaussian, Inc.
  
 This software contains proprietary and confidential information,
 including trade secrets, belonging to Gaussian, Inc.
  
 This software is provided under written license and may be
 used, copied, transmitted, or stored only in accord with that
 written license.
  
 The following legend is applicable only to US Government
 contracts under FAR:
  
                    RESTRICTED RIGHTS LEGEND
  
 Use, reproduction and disclosure by the US Government is
 subject to restrictions as set forth in subparagraphs (a)
 and (c) of the Commercial Computer Software - Restricted
 Rights clause in FAR 52.227-19.
  
 Gaussian, Inc.
 340 Quinnipiac St., Bldg. 40, Wallingford CT 06492
  
  
 ---------------------------------------------------------------
 Warning -- This program may not be used in any manner that
 competes with the business of Gaussian, Inc. or will provide
 assistance to any competitor of Gaussian, Inc.  The licensee
 of this program is prohibited from giving any competitor of
 Gaussian, Inc. access to this program.  By using this program,
 the user acknowledges that Gaussian, Inc. is engaged in the
 business of creating and licensing software in the field of
 computational chemistry and represents and warrants to the
 licensee that it is not a competitor of Gaussian, Inc. and that
 it will not use this program in any manner prohibited above.
 ---------------------------------------------------------------
  

 Cite this work as:
 Gaussian 09, Revision D.01,
 M. J. Frisch, G. W. Trucks, H. B. Schlegel, G. E. Scuseria, 
 M. A. Robb, J. R. Cheeseman, G. Scalmani, V. Barone, B. Mennucci, 
 G. A. Petersson, H. Nakatsuji, M. Caricato, X. Li, H. P. Hratchian, 
 A. F. Izmaylov, J. Bloino, G. Zheng, J. L. Sonnenberg, M. Hada, 
 M. Ehara, K. Toyota, R. Fukuda, J. Hasegawa, M. Ishida, T. Nakajima, 
 Y. Honda, O. Kitao, H. Nakai, T. Vreven, J. A. Montgomery, Jr., 
 J. E. Peralta, F. Ogliaro, M. Bearpark, J. J. Heyd, E. Brothers, 
 K. N. Kudin, V. N. Staroverov, T. Keith, R. Kobayashi, J. Normand, 
 K. Raghavachari, A. Rendell, J. C. Burant, S. S. Iyengar, J. Tomasi, 
 M. Cossi, N. Rega, J. M. Millam, M. Klene, J. E. Knox, J. B. Cross, 
 V. Bakken, C. Adamo, J. Jaramillo, R. Gomperts, R. E. Stratmann, 
 O. Yazyev, A. J. Austin, R. Cammi, C. Pomelli, J. W. Ochterski, 
 R. L. Martin, K. Morokuma, V. G. Zakrzewski, G. A. Voth, 
 P. Salvador, J. J. Dannenberg, S. Dapprich, A. D. Daniels, 
 O. Farkas, J. B. Foresman, J. V. Ortiz, J. Cioslowski, 
 and D. J. Fox, Gaussian, Inc., Wallingford CT, 2013.
 
 ******************************************
 Gaussian 09:  ES64L-G09RevD.01 24-Apr-2013
                 2-Feb-2018 
 ******************************************
 %chk=Sub-10-Cl-18-tBu.R.2_2a_r_down.Cf1.chk
 ---------------------------------------------------------
 #M06/genecp denfit freq=(hpmodes,noraman,temperature=298)
 ---------------------------------------------------------
 1/10=4,30=1,38=1,112=298000/1,3;
 2/12=2,17=6,18=5,40=1/2;
 3/5=7,11=2,16=1,17=8,25=1,30=1,71=2,74=-54,82=47,140=1/1,2,3;
 4//1;
 5/5=2,38=5,98=1/2;
 8/6=4,10=90,11=11/1;
 11/6=1,8=1,9=11,15=111,16=1/1,2,10;
 10/6=1/2;
 6/7=2,8=2,9=2,10=2,18=1,28=1/1;
 7/8=11,10=1,25=1/1,2,3,16;
 1/10=4,30=1/3;
 99//99;
 -----------------------------------------------------
 Sub-10-Cl-18-tBu/R/2_2a_r_down/Cf1 step 4 (attempt 1)
 -----------------------------------------------------
 Symbolic Z-matrix:
 Charge =  1 Multiplicity = 1
 C                    0     2.16419   1.86598  -0.52931 
 C                    0     3.2085    2.6805   -0.93397 
 C                    0     4.50361   2.33288  -0.55202 
 C                    0     4.68563   1.22604   0.25658 
 H                    0     5.66476   0.93756   0.62963 
 C                    0     3.56079   0.47322   0.61173 
 N                    0     2.3285    0.7324    0.19761 
 H                    0     5.35425   2.9399   -0.85414 
 H                    0     3.00009   3.57226  -1.51902 
 Cl                   0     3.79769  -0.83343   1.71964 
 C                    0     0.77096   2.25511  -0.76699 
 O                    0     0.54736   3.40409  -1.39834 
 N                    0    -0.23555   1.59423  -0.32598 
 C                    0    -0.8957    3.49449  -1.52868 
 H                    0    -1.17988   4.52632  -1.30543 
 H                    0    -1.14012   3.26881  -2.57389 
 C                    0    -1.42438   2.44462  -0.53851 
 C                    0    -1.97497   3.01654   0.78963 
 H                    0    -2.21572   1.83949  -1.001 
 Pd                   0     0.33289  -0.54602  -0.01038 
 C                    0    -4.43372  -1.33896  -0.88877 
 C                    0    -2.38348  -1.4046    0.66116 
 C                    0    -2.13881  -0.955    -1.80796 
 C                    0    -1.60123  -1.25183  -0.43228 
 C                    0    -3.5826   -0.45743  -1.78491 
 H                    0    -1.48073  -0.23406  -2.31922 
 H                    0    -3.98082  -0.44026  -2.8078 
 C                    0    -1.11337  -3.91218  -0.41655 
 H                    0    -2.06444  -3.89114  -0.96012 
 H                    0    -1.32246  -3.98232   0.65468 
 C                    0     1.03063  -2.56753  -0.12864 
 C                    0    -0.22406  -2.75854  -0.78281 
 H                    0    -0.17353  -2.57284  -1.85986 
 C                    0     2.21445  -2.4997   -1.07321 
 H                    0     3.1265   -2.21537  -0.52595 
 H                    0     2.04042  -1.75926  -1.87562 
 H                    0    -0.56968  -4.8248   -0.71103 
 C                    0     1.29749  -3.28255   1.16441 
 H                    0     1.57413  -4.32469   0.93469 
 H                    0     2.13353  -2.83743   1.70813 
 H                    0     0.43214  -3.30686   1.83377 
 O                    0     2.32812  -3.80555  -1.61101 
 H                    0     3.17411  -3.9079   -2.06963 
 H                    0    -4.44766  -2.37196  -1.2783 
 C                    0    -3.87518  -1.38512   0.50981 
 O                    0    -4.58668  -1.44898   1.49493 
 C                    0    -1.91542  -1.65145   2.05774 
 H                    0    -2.32781  -0.88563   2.72819 
 H                    0    -2.2966   -2.60853   2.44257 
 H                    0    -0.82282  -1.62203   2.14312 
 H                    0    -5.47714  -1.00876  -0.83259 
 H                    0    -3.63069   0.57856  -1.4143 
 H                    0    -2.10294  -1.86924  -2.42651 
 C                    0    -0.95283   3.92259   1.47511 
 H                    0    -1.37344   4.31454   2.41077 
 H                    0    -0.03591   3.3758    1.73893 
 H                    0    -0.67255   4.79142   0.86287 
 C                    0    -3.24485   3.80669   0.46916 
 H                    0    -4.00076   3.17214  -0.01757 
 H                    0    -3.69025   4.19419   1.395 
 H                    0    -3.05853   4.67267  -0.18163 
 C                    0    -2.33611   1.87042   1.73061 
 H                    0    -2.76249   2.26714   2.6619 
 H                    0    -3.08872   1.20203   1.28625 
 H                    0    -1.45631   1.26718   1.99291 
 

 GradGradGradGradGradGradGradGradGradGradGradGradGradGradGradGradGradGrad
 Berny optimization.
 Initialization pass.
 Trust Radius=3.00D-01 FncErr=1.00D-07 GrdErr=1.00D-07
 Number of steps in this run=      2 maximum allowed number of steps=      2.
 GradGradGradGradGradGradGradGradGradGradGradGradGradGradGradGradGradGrad

 Stoichiometry    C24H34ClN2O3Pd(1+)
 Framework group  C1[X(C24H34ClN2O3Pd)]
 Deg. of freedom   189
 Full point group                 C1      NOp   1
 Largest Abelian subgroup         C1      NOp   1
 Largest concise Abelian subgroup C1      NOp   1
                         Standard orientation:                         
 ---------------------------------------------------------------------
 Center     Atomic      Atomic             Coordinates (Angstroms)
 Number     Number       Type             X           Y           Z
 ---------------------------------------------------------------------
      1          6           0        2.164189    1.865977   -0.529314
      2          6           0        3.208502    2.680495   -0.933967
      3          6           0        4.503612    2.332878   -0.552022
      4          6           0        4.685630    1.226044    0.256580
      5          1           0        5.664759    0.937562    0.629625
      6          6           0        3.560789    0.473218    0.611728
      7          7           0        2.328504    0.732404    0.197614
      8          1           0        5.354251    2.939905   -0.854140
      9          1           0        3.000086    3.572264   -1.519023
     10         17           0        3.797691   -0.833432    1.719640
     11          6           0        0.770958    2.255110   -0.766994
     12          8           0        0.547359    3.404090   -1.398335
     13          7           0       -0.235549    1.594227   -0.325978
     14          6           0       -0.895698    3.494491   -1.528682
     15          1           0       -1.179882    4.526321   -1.305429
     16          1           0       -1.140119    3.268807   -2.573886
     17          6           0       -1.424383    2.444615   -0.538513
     18          6           0       -1.974967    3.016545    0.789626
     19          1           0       -2.215718    1.839486   -1.001000
     20         46           0        0.332892   -0.546015   -0.010383
     21          6           0       -4.433724   -1.338957   -0.888766
     22          6           0       -2.383481   -1.404600    0.661162
     23          6           0       -2.138809   -0.954995   -1.807956
     24          6           0       -1.601227   -1.251827   -0.432280
     25          6           0       -3.582600   -0.457432   -1.784912
     26          1           0       -1.480729   -0.234055   -2.319216
     27          1           0       -3.980824   -0.440264   -2.807798
     28          6           0       -1.113373   -3.912181   -0.416554
     29          1           0       -2.064439   -3.891137   -0.960122
     30          1           0       -1.322455   -3.982316    0.654679
     31          6           0        1.030626   -2.567533   -0.128641
     32          6           0       -0.224059   -2.758537   -0.782813
     33          1           0       -0.173530   -2.572843   -1.859857
     34          6           0        2.214451   -2.499697   -1.073213
     35          1           0        3.126503   -2.215372   -0.525947
     36          1           0        2.040419   -1.759255   -1.875617
     37          1           0       -0.569677   -4.824804   -0.711027
     38          6           0        1.297492   -3.282549    1.164410
     39          1           0        1.574132   -4.324692    0.934690
     40          1           0        2.133532   -2.837426    1.708128
     41          1           0        0.432140   -3.306859    1.833765
     42          8           0        2.328123   -3.805547   -1.611011
     43          1           0        3.174109   -3.907896   -2.069628
     44          1           0       -4.447663   -2.371962   -1.278303
     45          6           0       -3.875180   -1.385120    0.509811
     46          8           0       -4.586678   -1.448982    1.494925
     47          6           0       -1.915422   -1.651449    2.057735
     48          1           0       -2.327814   -0.885633    2.728186
     49          1           0       -2.296601   -2.608528    2.442567
     50          1           0       -0.822824   -1.622027    2.143121
     51          1           0       -5.477144   -1.008764   -0.832592
     52          1           0       -3.630692    0.578555   -1.414304
     53          1           0       -2.102941   -1.869235   -2.426507
     54          6           0       -0.952833    3.922593    1.475110
     55          1           0       -1.373443    4.314535    2.410774
     56          1           0       -0.035913    3.375799    1.738928
     57          1           0       -0.672555    4.791418    0.862867
     58          6           0       -3.244845    3.806694    0.469159
     59          1           0       -4.000757    3.172139   -0.017566
     60          1           0       -3.690251    4.194187    1.395001
     61          1           0       -3.058535    4.672670   -0.181626
     62          6           0       -2.336113    1.870419    1.730610
     63          1           0       -2.762494    2.267137    2.661903
     64          1           0       -3.088719    1.202030    1.286249
     65          1           0       -1.456312    1.267182    1.992910
 ---------------------------------------------------------------------
 Rotational constants (GHZ):      0.1583911      0.1284675      0.0863280
 General basis read from cards:  (5D, 7F)
 ======================================================================================================
                                       Pseudopotential Parameters
 ======================================================================================================
  Center     Atomic      Valence      Angular      Power
  Number     Number     Electrons     Momentum     of R      Exponent        Coefficient   SO-Coeffient
 ======================================================================================================
    1          6
                                   No pseudopotential on this center.
    2          6
                                   No pseudopotential on this center.
    3          6
                                   No pseudopotential on this center.
    4          6
                                   No pseudopotential on this center.
    5          1
                                   No pseudopotential on this center.
    6          6
                                   No pseudopotential on this center.
    7          7
                                   No pseudopotential on this center.
    8          1
                                   No pseudopotential on this center.
    9          1
                                   No pseudopotential on this center.
   10         17
                                   No pseudopotential on this center.
   11          6
                                   No pseudopotential on this center.
   12          8
                                   No pseudopotential on this center.
   13          7
                                   No pseudopotential on this center.
   14          6
                                   No pseudopotential on this center.
   15          1
                                   No pseudopotential on this center.
   16          1
                                   No pseudopotential on this center.
   17          6
                                   No pseudopotential on this center.
   18          6
                                   No pseudopotential on this center.
   19          1
                                   No pseudopotential on this center.
   20         46           18
                                      F and up 
                                                     0      598.3336444       -0.05631770    0.00000000
                                                     1      162.4298290      -20.12880360    0.00000000
                                                     2       51.5714771     -105.81979230    0.00000000
                                                     2       16.4888260      -42.57333450    0.00000000
                                                     2        5.8287656       -3.61650860    0.00000000
                                      S - F
                                                     0       73.3806304        3.00036510    0.00000000
                                                     1       14.7550438       32.43500930    0.00000000
                                                     2       17.8350204      459.08303830    0.00000000
                                                     2       12.7111477     -868.06290290    0.00000000
                                                     2        9.3292063      514.47260980    0.00000000
                                      P - F
                                                     0       55.6689877        4.95930990    0.00000000
                                                     1       64.2337771       21.17110290    0.00000000
                                                     2       17.6254952      605.05600920    0.00000000
                                                     2       11.9058155     -726.96418460    0.00000000
                                                     2        8.5100832      396.32748830    0.00000000
                                      D - F
                                                     0       49.9994728        3.05087450    0.00000000
                                                     1       39.7477547       22.25065800    0.00000000
                                                     2       11.4321366      674.83576980    0.00000000
                                                     2        9.1790080    -1040.85540480    0.00000000
                                                     2        7.5624429      505.93751470    0.00000000
   21          6
                                   No pseudopotential on this center.
   22          6
                                   No pseudopotential on this center.
   23          6
                                   No pseudopotential on this center.
   24          6
                                   No pseudopotential on this center.
   25          6
                                   No pseudopotential on this center.
   26          1
                                   No pseudopotential on this center.
   27          1
                                   No pseudopotential on this center.
   28          6
                                   No pseudopotential on this center.
   29          1
                                   No pseudopotential on this center.
   30          1
                                   No pseudopotential on this center.
   31          6
                                   No pseudopotential on this center.
   32          6
                                   No pseudopotential on this center.
   33          1
                                   No pseudopotential on this center.
   34          6
                                   No pseudopotential on this center.
   35          1
                                   No pseudopotential on this center.
   36          1
                                   No pseudopotential on this center.
   37          1
                                   No pseudopotential on this center.
   38          6
                                   No pseudopotential on this center.
   39          1
                                   No pseudopotential on this center.
   40          1
                                   No pseudopotential on this center.
   41          1
                                   No pseudopotential on this center.
   42          8
                                   No pseudopotential on this center.
   43          1
                                   No pseudopotential on this center.
   44          1
                                   No pseudopotential on this center.
   45          6
                                   No pseudopotential on this center.
   46          8
                                   No pseudopotential on this center.
   47          6
                                   No pseudopotential on this center.
   48          1
                                   No pseudopotential on this center.
   49          1
                                   No pseudopotential on this center.
   50          1
                                   No pseudopotential on this center.
   51          1
                                   No pseudopotential on this center.
   52          1
                                   No pseudopotential on this center.
   53          1
                                   No pseudopotential on this center.
   54          6
                                   No pseudopotential on this center.
   55          1
                                   No pseudopotential on this center.
   56          1
                                   No pseudopotential on this center.
   57          1
                                   No pseudopotential on this center.
   58          6
                                   No pseudopotential on this center.
   59          1
                                   No pseudopotential on this center.
   60          1
                                   No pseudopotential on this center.
   61          1
                                   No pseudopotential on this center.
   62          6
                                   No pseudopotential on this center.
   63          1
                                   No pseudopotential on this center.
   64          1
                                   No pseudopotential on this center.
   65          1
                                   No pseudopotential on this center.
 ======================================================================================================
 There are   666 symmetry adapted cartesian basis functions of A   symmetry.
 There are   634 symmetry adapted basis functions of A   symmetry.
   634 basis functions,  1169 primitive gaussians,   666 cartesian basis functions
   125 alpha electrons      125 beta electrons
       nuclear repulsion energy      3968.9952250588 Hartrees.
 NAtoms=   65 NActive=   65 NUniq=   65 SFac= 1.00D+00 NAtFMM=   60 NAOKFM=T Big=T
 Integral buffers will be    131072 words long.
 Raffenetti 2 integral format.
 Two-electron integral symmetry is turned on.
 Standard density basis: Auto (5D, 7F)
  2775 Density fitting functions
 There are  2775 symmetry adapted density basis functions of A   symmetry.
 One-electron integrals computed using PRISM.
   1 Symmetry operations used in ECPInt.
 ECPInt:  NShTT=   25878 NPrTT=  135610 LenC2=   23086 LenP2D=   72048.
 LDataN:  DoStor=T MaxTD1= 5 Len=  102
 NBasis=   634 RedAO= T EigKep=  1.19D-06  NBF=   634
 NBsUse=   633 1.00D-06 EigRej=  3.48D-07 NBFU=   633
 Defaulting to unpruned grid for atomic number  46.
 ExpMin= 2.62D-02 ExpMax= 2.52D+04 ExpMxC= 3.78D+03 IAcc=3 IRadAn=         5 AccDes= 0.00D+00
 Harris functional with IExCor= 1009 and IRadAn=       5 diagonalized for initial guess.
 HarFok:  IExCor= 1009 AccDes= 0.00D+00 IRadAn=         5 IDoV= 1 UseB2=F ITyADJ=14
 ICtDFT=  3500011 ScaDFX=  1.000000  1.000000  1.000000  1.000000
 Defaulting to unpruned grid for atomic number  46.
 Defaulting to unpruned grid for atomic number  46.
 Defaulting to unpruned grid for atomic number  46.
 Defaulting to unpruned grid for atomic number  46.
 Defaulting to unpruned grid for atomic number  46.
 Defaulting to unpruned grid for atomic number  46.
 Defaulting to unpruned grid for atomic number  46.
 Defaulting to unpruned grid for atomic number  46.
 Defaulting to unpruned grid for atomic number  46.
 Defaulting to unpruned grid for atomic number  46.
 Defaulting to unpruned grid for atomic number  46.
 Defaulting to unpruned grid for atomic number  46.
 Defaulting to unpruned grid for atomic number  46.
 Defaulting to unpruned grid for atomic number  46.
 Defaulting to unpruned grid for atomic number  46.
 Defaulting to unpruned grid for atomic number  46.
 Defaulting to unpruned grid for atomic number  46.
 Defaulting to unpruned grid for atomic number  46.
 Defaulting to unpruned grid for atomic number  46.
 Defaulting to unpruned grid for atomic number  46.
 Defaulting to unpruned grid for atomic number  46.
 Defaulting to unpruned grid for atomic number  46.
 Defaulting to unpruned grid for atomic number  46.
 Defaulting to unpruned grid for atomic number  46.
 Defaulting to unpruned grid for atomic number  46.
 Defaulting to unpruned grid for atomic number  46.
 Defaulting to unpruned grid for atomic number  46.
 Defaulting to unpruned grid for atomic number  46.
 FoFCou: FMM=F IPFlag=           0 FMFlag=      100000 FMFlg1=        2001
         NFxFlg=           0 DoJE=T BraDBF=F KetDBF=T FulRan=T
         wScrn=  0.000000 ICntrl=     500 IOpCl=  0 I1Cent=   200000004 NGrid=           0
         NMat0=    1 NMatS0=      1 NMatT0=    0 NMatD0=    1 NMtDS0=    0 NMtDT0=    0
 Petite list used in FoFCou.
 Requested convergence on RMS density matrix=1.00D-08 within 128 cycles.
 Requested convergence on MAX density matrix=1.00D-06.
 Requested convergence on             energy=1.00D-06.
 No special actions if energy rises.
 Defaulting to unpruned grid for atomic number  46.
 Defaulting to unpruned grid for atomic number  46.
 Defaulting to unpruned grid for atomic number  46.
 Defaulting to unpruned grid for atomic number  46.
 Defaulting to unpruned grid for atomic number  46.
 Defaulting to unpruned grid for atomic number  46.
 Defaulting to unpruned grid for atomic number  46.
 Defaulting to unpruned grid for atomic number  46.
 Defaulting to unpruned grid for atomic number  46.
 Defaulting to unpruned grid for atomic number  46.
 Defaulting to unpruned grid for atomic number  46.
 Defaulting to unpruned grid for atomic number  46.
 Defaulting to unpruned grid for atomic number  46.
 Defaulting to unpruned grid for atomic number  46.
 Defaulting to unpruned grid for atomic number  46.
 Defaulting to unpruned grid for atomic number  46.
 Defaulting to unpruned grid for atomic number  46.
 Defaulting to unpruned grid for atomic number  46.
 Defaulting to unpruned grid for atomic number  46.
 Defaulting to unpruned grid for atomic number  46.
 Defaulting to unpruned grid for atomic number  46.
 Defaulting to unpruned grid for atomic number  46.
 Defaulting to unpruned grid for atomic number  46.
 Defaulting to unpruned grid for atomic number  46.
 Defaulting to unpruned grid for atomic number  46.
 Defaulting to unpruned grid for atomic number  46.
 Defaulting to unpruned grid for atomic number  46.
 Defaulting to unpruned grid for atomic number  46.
 EnCoef did     2 forward-backward iterations
 EnCoef did     3 forward-backward iterations
 EnCoef did     3 forward-backward iterations
 EnCoef did     2 forward-backward iterations
 Restarting incremental Fock formation.
 SCF Done:  E(RM06) =  -1856.01445187     A.U. after   25 cycles
            NFock= 25  Conv=0.79D-08     -V/T= 2.0508
 DoSCS=F DFT=T ScalE2(SS,OS)=  1.000000  1.000000
 Range of M.O.s used for correlation:     1   633
 NBasis=   634 NAE=   125 NBE=   125 NFC=     0 NFV=     0
 NROrb=    633 NOA=   125 NOB=   125 NVA=   508 NVB=   508

 **** Warning!!: The largest alpha MO coefficient is  0.14768473D+03

   1 Symmetry operations used in ECPInt.
 ECPInt:  NShTT=   25878 NPrTT=  135610 LenC2=   23086 LenP2D=   72048.
 LDataN:  DoStor=T MaxTD1= 6 Len=  172
 Number of processors reduced to   9 by ecpmxn.
 Symmetrizing basis deriv contribution to polar:
 IMax=3 JMax=2 DiffMx= 0.00D+00
 G2DrvN: will do    66 centers at a time, making    1 passes.
 Calling FoFCou, ICntrl=  3107 FMM=T I1Cent=   0 AccDes= 0.00D+00.
 Defaulting to unpruned grid for atomic number  46.
 Defaulting to unpruned grid for atomic number  46.
 Defaulting to unpruned grid for atomic number  46.
 Defaulting to unpruned grid for atomic number  46.
 Defaulting to unpruned grid for atomic number  46.
 Defaulting to unpruned grid for atomic number  46.
 Defaulting to unpruned grid for atomic number  46.
 Defaulting to unpruned grid for atomic number  46.
 Defaulting to unpruned grid for atomic number  46.
 Defaulting to unpruned grid for atomic number  46.
 Defaulting to unpruned grid for atomic number  46.
 Defaulting to unpruned grid for atomic number  46.
 Defaulting to unpruned grid for atomic number  46.
 Defaulting to unpruned grid for atomic number  46.
 Defaulting to unpruned grid for atomic number  46.
 Defaulting to unpruned grid for atomic number  46.
 Defaulting to unpruned grid for atomic number  46.
 Defaulting to unpruned grid for atomic number  46.
 Defaulting to unpruned grid for atomic number  46.
 Defaulting to unpruned grid for atomic number  46.
 Defaulting to unpruned grid for atomic number  46.
 Defaulting to unpruned grid for atomic number  46.
 Defaulting to unpruned grid for atomic number  46.
 Defaulting to unpruned grid for atomic number  46.
 Defaulting to unpruned grid for atomic number  46.
 Defaulting to unpruned grid for atomic number  46.
 Defaulting to unpruned grid for atomic number  46.
 Defaulting to unpruned grid for atomic number  46.
 End of G2Drv F.D. properties file   721 does not exist.
 End of G2Drv F.D. properties file   722 does not exist.
 End of G2Drv F.D. properties file   788 does not exist.
          IDoAtm=11111111111111111111111111111111111111111111111111
          IDoAtm=111111111111111
          Differentiating once with respect to electric field.
                with respect to dipole field.
          Differentiating once with respect to nuclear coordinates.
 Defaulting to unpruned grid for atomic number  46.
 CalDSu exits because no D1Ps are significant.
 Defaulting to unpruned grid for atomic number  46.
 Defaulting to unpruned grid for atomic number  46.
 Defaulting to unpruned grid for atomic number  46.
 Defaulting to unpruned grid for atomic number  46.
 Defaulting to unpruned grid for atomic number  46.
 Defaulting to unpruned grid for atomic number  46.
 Defaulting to unpruned grid for atomic number  46.
 Defaulting to unpruned grid for atomic number  46.
 Defaulting to unpruned grid for atomic number  46.
 Defaulting to unpruned grid for atomic number  46.
 Defaulting to unpruned grid for atomic number  46.
 Defaulting to unpruned grid for atomic number  46.
 Defaulting to unpruned grid for atomic number  46.
 Defaulting to unpruned grid for atomic number  46.
 Defaulting to unpruned grid for atomic number  46.
 Defaulting to unpruned grid for atomic number  46.
 Defaulting to unpruned grid for atomic number  46.
 Defaulting to unpruned grid for atomic number  46.
 Defaulting to unpruned grid for atomic number  46.
 Defaulting to unpruned grid for atomic number  46.
 Defaulting to unpruned grid for atomic number  46.
 Defaulting to unpruned grid for atomic number  46.
 Defaulting to unpruned grid for atomic number  46.
 Defaulting to unpruned grid for atomic number  46.
 Defaulting to unpruned grid for atomic number  46.
 Defaulting to unpruned grid for atomic number  46.
 Defaulting to unpruned grid for atomic number  46.
 Defaulting to unpruned grid for atomic number  46.
          There are   198 degrees of freedom in the 1st order CPHF.  IDoFFX=6 NUNeed=     3.
    198 vectors produced by pass  0 Test12= 6.35D-14 1.00D-09 XBig12= 4.61D+02 8.06D+00.
 AX will form    84 AO Fock derivatives at one time.
    198 vectors produced by pass  1 Test12= 6.35D-14 1.00D-09 XBig12= 8.45D+01 1.36D+00.
    195 vectors produced by pass  2 Test12= 6.35D-14 1.00D-09 XBig12= 1.25D+00 8.87D-02.
    195 vectors produced by pass  3 Test12= 6.35D-14 1.00D-09 XBig12= 9.35D-03 5.74D-03.
    195 vectors produced by pass  4 Test12= 6.35D-14 1.00D-09 XBig12= 5.27D-05 3.98D-04.
    195 vectors produced by pass  5 Test12= 6.35D-14 1.00D-09 XBig12= 1.65D-07 2.38D-05.
    195 vectors produced by pass  6 Test12= 6.35D-14 1.00D-09 XBig12= 3.95D-10 1.05D-06.
    194 vectors produced by pass  7 Test12= 6.35D-14 1.00D-09 XBig12= 3.23D-12 9.57D-08.
    193 vectors produced by pass  8 Test12= 6.35D-14 1.00D-09 XBig12= 2.44D-13 2.09D-08.
    193 vectors produced by pass  9 Test12= 6.35D-14 1.00D-09 XBig12= 1.13D-13 1.38D-08.
    174 vectors produced by pass 10 Test12= 6.35D-14 1.00D-09 XBig12= 1.49D-13 1.31D-08.
    174 vectors produced by pass 11 Test12= 6.35D-14 1.00D-09 XBig12= 9.44D-14 1.11D-08.
    101 vectors produced by pass 12 Test12= 6.35D-14 1.00D-09 XBig12= 4.46D-14 9.24D-09.
     98 vectors produced by pass 13 Test12= 6.35D-14 1.00D-09 XBig12= 4.15D-14 7.45D-09.
     97 vectors produced by pass 14 Test12= 6.35D-14 1.00D-09 XBig12= 3.27D-14 6.76D-09.
     58 vectors produced by pass 15 Test12= 6.35D-14 1.00D-09 XBig12= 1.63D-14 4.15D-09.
     40 vectors produced by pass 16 Test12= 6.35D-14 1.00D-09 XBig12= 1.09D-14 4.16D-09.
     40 vectors produced by pass 17 Test12= 6.35D-14 1.00D-09 XBig12= 1.65D-14 4.22D-09.
     40 vectors produced by pass 18 Test12= 6.35D-14 1.00D-09 XBig12= 2.95D-14 6.62D-09.
     32 vectors produced by pass 19 Test12= 6.35D-14 1.00D-09 XBig12= 8.05D-15 3.02D-09.
     26 vectors produced by pass 20 Test12= 6.35D-14 1.00D-09 XBig12= 6.62D-15 2.86D-09.
     26 vectors produced by pass 21 Test12= 6.35D-14 1.00D-09 XBig12= 1.51D-14 3.87D-09.
     26 vectors produced by pass 22 Test12= 6.35D-14 1.00D-09 XBig12= 6.26D-15 3.09D-09.
     26 vectors produced by pass 23 Test12= 6.35D-14 1.00D-09 XBig12= 1.35D-14 4.60D-09.
     26 vectors produced by pass 24 Test12= 6.35D-14 1.00D-09 XBig12= 1.24D-14 3.87D-09.
     26 vectors produced by pass 25 Test12= 6.35D-14 1.00D-09 XBig12= 6.50D-15 2.62D-09.
     19 vectors produced by pass 26 Test12= 6.35D-14 1.00D-09 XBig12= 3.37D-15 1.98D-09.
     19 vectors produced by pass 27 Test12= 6.35D-14 1.00D-09 XBig12= 1.12D-14 3.43D-09.
     19 vectors produced by pass 28 Test12= 6.35D-14 1.00D-09 XBig12= 6.36D-15 3.00D-09.
     19 vectors produced by pass 29 Test12= 6.35D-14 1.00D-09 XBig12= 4.71D-15 2.33D-09.
     19 vectors produced by pass 30 Test12= 6.35D-14 1.00D-09 XBig12= 8.52D-15 2.96D-09.
     19 vectors produced by pass 31 Test12= 6.35D-14 1.00D-09 XBig12= 3.33D-15 2.08D-09.
     19 vectors produced by pass 32 Test12= 6.35D-14 1.00D-09 XBig12= 4.62D-15 2.13D-09.
     19 vectors produced by pass 33 Test12= 6.35D-14 1.00D-09 XBig12= 3.87D-15 2.07D-09.
     19 vectors produced by pass 34 Test12= 6.35D-14 1.00D-09 XBig12= 5.01D-15 2.82D-09.
     19 vectors produced by pass 35 Test12= 6.35D-14 1.00D-09 XBig12= 6.88D-15 2.88D-09.
     19 vectors produced by pass 36 Test12= 6.35D-14 1.00D-09 XBig12= 2.75D-15 1.73D-09.
     19 vectors produced by pass 37 Test12= 6.35D-14 1.00D-09 XBig12= 6.46D-15 2.91D-09.
     19 vectors produced by pass 38 Test12= 6.35D-14 1.00D-09 XBig12= 3.23D-15 2.04D-09.
     17 vectors produced by pass 39 Test12= 6.35D-14 1.00D-09 XBig12= 2.47D-15 1.65D-09.
     17 vectors produced by pass 40 Test12= 6.35D-14 1.00D-09 XBig12= 3.49D-15 1.94D-09.
     17 vectors produced by pass 41 Test12= 6.35D-14 1.00D-09 XBig12= 3.33D-15 1.80D-09.
     17 vectors produced by pass 42 Test12= 6.35D-14 1.00D-09 XBig12= 3.05D-15 1.99D-09.
     15 vectors produced by pass 43 Test12= 6.35D-14 1.00D-09 XBig12= 1.81D-15 1.47D-09.
     15 vectors produced by pass 44 Test12= 6.35D-14 1.00D-09 XBig12= 6.11D-15 2.87D-09.
     15 vectors produced by pass 45 Test12= 6.35D-14 1.00D-09 XBig12= 5.22D-15 2.37D-09.
     13 vectors produced by pass 46 Test12= 6.35D-14 1.00D-09 XBig12= 1.79D-15 1.37D-09.
     13 vectors produced by pass 47 Test12= 6.35D-14 1.00D-09 XBig12= 3.00D-15 1.83D-09.
     13 vectors produced by pass 48 Test12= 6.35D-14 1.00D-09 XBig12= 2.36D-15 1.70D-09.
     12 vectors produced by pass 49 Test12= 6.35D-14 1.00D-09 XBig12= 2.29D-15 1.60D-09.
      8 vectors produced by pass 50 Test12= 6.35D-14 1.00D-09 XBig12= 1.52D-15 1.45D-09.
      8 vectors produced by pass 51 Test12= 6.35D-14 1.00D-09 XBig12= 2.48D-15 1.56D-09.
      8 vectors produced by pass 52 Test12= 6.35D-14 1.00D-09 XBig12= 3.01D-15 1.78D-09.
      8 vectors produced by pass 53 Test12= 6.35D-14 1.00D-09 XBig12= 4.06D-15 1.96D-09.
      8 vectors produced by pass 54 Test12= 6.35D-14 1.00D-09 XBig12= 1.81D-15 1.37D-09.
      8 vectors produced by pass 55 Test12= 6.35D-14 1.00D-09 XBig12= 7.61D-15 2.98D-09.
      8 vectors produced by pass 56 Test12= 6.35D-14 1.00D-09 XBig12= 5.41D-15 2.51D-09.
      7 vectors produced by pass 57 Test12= 6.35D-14 1.00D-09 XBig12= 1.67D-15 1.25D-09.
      7 vectors produced by pass 58 Test12= 6.35D-14 1.00D-09 XBig12= 2.85D-15 1.79D-09.
      7 vectors produced by pass 59 Test12= 6.35D-14 1.00D-09 XBig12= 2.83D-15 1.93D-09.
      7 vectors produced by pass 60 Test12= 6.35D-14 1.00D-09 XBig12= 1.63D-15 1.35D-09.
      7 vectors produced by pass 61 Test12= 6.35D-14 1.00D-09 XBig12= 1.40D-15 1.29D-09.
      6 vectors produced by pass 62 Test12= 6.35D-14 1.00D-09 XBig12= 1.44D-15 1.38D-09.
      6 vectors produced by pass 63 Test12= 6.35D-14 1.00D-09 XBig12= 3.02D-15 2.01D-09.
      6 vectors produced by pass 64 Test12= 6.35D-14 1.00D-09 XBig12= 3.55D-15 2.10D-09.
      6 vectors produced by pass 65 Test12= 6.35D-14 1.00D-09 XBig12= 2.34D-15 1.66D-09.
      6 vectors produced by pass 66 Test12= 6.35D-14 1.00D-09 XBig12= 2.77D-15 1.66D-09.
      5 vectors produced by pass 67 Test12= 6.35D-14 1.00D-09 XBig12= 1.59D-15 1.45D-09.
      5 vectors produced by pass 68 Test12= 6.35D-14 1.00D-09 XBig12= 4.77D-15 2.43D-09.
      5 vectors produced by pass 69 Test12= 6.35D-14 1.00D-09 XBig12= 3.39D-15 1.93D-09.
      5 vectors produced by pass 70 Test12= 6.35D-14 1.00D-09 XBig12= 3.75D-15 1.95D-09.
      5 vectors produced by pass 71 Test12= 6.35D-14 1.00D-09 XBig12= 6.86D-15 2.73D-09.
      5 vectors produced by pass 72 Test12= 6.35D-14 1.00D-09 XBig12= 6.00D-15 2.49D-09.
      4 vectors produced by pass 73 Test12= 6.35D-14 1.00D-09 XBig12= 1.29D-15 1.18D-09.
      4 vectors produced by pass 74 Test12= 6.35D-14 1.00D-09 XBig12= 5.40D-15 2.65D-09.
      4 vectors produced by pass 75 Test12= 6.35D-14 1.00D-09 XBig12= 2.53D-15 1.64D-09.
      4 vectors produced by pass 76 Test12= 6.35D-14 1.00D-09 XBig12= 6.20D-15 2.59D-09.
      4 vectors produced by pass 77 Test12= 6.35D-14 1.00D-09 XBig12= 4.60D-15 2.43D-09.
      4 vectors produced by pass 78 Test12= 6.35D-14 1.00D-09 XBig12= 2.42D-15 1.58D-09.
      4 vectors produced by pass 79 Test12= 6.35D-14 1.00D-09 XBig12= 8.87D-15 3.37D-09.
      4 vectors produced by pass 80 Test12= 6.35D-14 1.00D-09 XBig12= 3.40D-15 1.77D-09.
      4 vectors produced by pass 81 Test12= 6.35D-14 1.00D-09 XBig12= 3.49D-15 2.00D-09.
      4 vectors produced by pass 82 Test12= 6.35D-14 1.00D-09 XBig12= 6.82D-15 3.10D-09.
      4 vectors produced by pass 83 Test12= 6.35D-14 1.00D-09 XBig12= 5.42D-15 2.66D-09.
      4 vectors produced by pass 84 Test12= 6.35D-14 1.00D-09 XBig12= 1.86D-15 1.39D-09.
      4 vectors produced by pass 85 Test12= 6.35D-14 1.00D-09 XBig12= 2.63D-15 1.76D-09.
      4 vectors produced by pass 86 Test12= 6.35D-14 1.00D-09 XBig12= 1.81D-15 1.63D-09.
      4 vectors produced by pass 87 Test12= 6.35D-14 1.00D-09 XBig12= 1.74D-15 1.37D-09.
      4 vectors produced by pass 88 Test12= 6.35D-14 1.00D-09 XBig12= 7.65D-15 2.96D-09.
      4 vectors produced by pass 89 Test12= 6.35D-14 1.00D-09 XBig12= 2.45D-15 1.57D-09.
      4 vectors produced by pass 90 Test12= 6.35D-14 1.00D-09 XBig12= 6.90D-15 2.57D-09.
      4 vectors produced by pass 91 Test12= 6.35D-14 1.00D-09 XBig12= 3.37D-15 1.63D-09.
      4 vectors produced by pass 92 Test12= 6.35D-14 1.00D-09 XBig12= 4.83D-15 2.16D-09.
      4 vectors produced by pass 93 Test12= 6.35D-14 1.00D-09 XBig12= 4.34D-15 2.05D-09.
      4 vectors produced by pass 94 Test12= 6.35D-14 1.00D-09 XBig12= 5.04D-15 2.01D-09.
      2 vectors produced by pass 95 Test12= 6.35D-14 1.00D-09 XBig12= 1.70D-15 1.44D-09.
 InvSVY:  IOpt=1 It=  1 EMax= 3.91D-14
 Solved reduced A of dimension  3613 with   198 vectors.
 Isotropic polarizability for W=    0.000000      346.67 Bohr**3.
 End of Minotr F.D. properties file   721 does not exist.
 End of Minotr F.D. properties file   722 does not exist.
 End of Minotr F.D. properties file   788 does not exist.

 **********************************************************************

            Population analysis using the SCF density.

 **********************************************************************

 Orbital symmetries:
       Occupied  (A) (A) (A) (A) (A) (A) (A) (A) (A) (A) (A) (A)
                 (A) (A) (A) (A) (A) (A) (A) (A) (A) (A) (A) (A)
                 (A) (A) (A) (A) (A) (A) (A) (A) (A) (A) (A) (A)
                 (A) (A) (A) (A) (A) (A) (A) (A) (A) (A) (A) (A)
                 (A) (A) (A) (A) (A) (A) (A) (A) (A) (A) (A) (A)
                 (A) (A) (A) (A) (A) (A) (A) (A) (A) (A) (A) (A)
                 (A) (A) (A) (A) (A) (A) (A) (A) (A) (A) (A) (A)
                 (A) (A) (A) (A) (A) (A) (A) (A) (A) (A) (A) (A)
                 (A) (A) (A) (A) (A) (A) (A) (A) (A) (A) (A) (A)
                 (A) (A) (A) (A) (A) (A) (A) (A) (A) (A) (A) (A)
                 (A) (A) (A) (A) (A)
       Virtual   (A) (A) (A) (A) (A) (A) (A) (A) (A) (A) (A) (A)
                 (A) (A) (A) (A) (A) (A) (A) (A) (A) (A) (A) (A)
                 (A) (A) (A) (A) (A) (A) (A) (A) (A) (A) (A) (A)
                 (A) (A) (A) (A) (A) (A) (A) (A) (A) (A) (A) (A)
                 (A) (A) (A) (A) (A) (A) (A) (A) (A) (A) (A) (A)
                 (A) (A) (A) (A) (A) (A) (A) (A) (A) (A) (A) (A)
                 (A) (A) (A) (A) (A) (A) (A) (A) (A) (A) (A) (A)
                 (A) (A) (A) (A) (A) (A) (A) (A) (A) (A) (A) (A)
                 (A) (A) (A) (A) (A) (A) (A) (A) (A) (A) (A) (A)
                 (A) (A) (A) (A) (A) (A) (A) (A) (A) (A) (A) (A)
                 (A) (A) (A) (A) (A) (A) (A) (A) (A) (A) (A) (A)
                 (A) (A) (A) (A) (A) (A) (A) (A) (A) (A) (A) (A)
                 (A) (A) (A) (A) (A) (A) (A) (A) (A) (A) (A) (A)
                 (A) (A) (A) (A) (A) (A) (A) (A) (A) (A) (A) (A)
                 (A) (A) (A) (A) (A) (A) (A) (A) (A) (A) (A) (A)
                 (A) (A) (A) (A) (A) (A) (A) (A) (A) (A) (A) (A)
                 (A) (A) (A) (A) (A) (A) (A) (A) (A) (A) (A) (A)
                 (A) (A) (A) (A) (A) (A) (A) (A) (A) (A) (A) (A)
                 (A) (A) (A) (A) (A) (A) (A) (A) (A) (A) (A) (A)
                 (A) (A) (A) (A) (A) (A) (A) (A) (A) (A) (A) (A)
                 (A) (A) (A) (A) (A) (A) (A) (A) (A) (A) (A) (A)
                 (A) (A) (A) (A) (A) (A) (A) (A) (A) (A) (A) (A)
                 (A) (A) (A) (A) (A) (A) (A) (A) (A) (A) (A) (A)
                 (A) (A) (A) (A) (A) (A) (A) (A) (A) (A) (A) (A)
                 (A) (A) (A) (A) (A) (A) (A) (A) (A) (A) (A) (A)
                 (A) (A) (A) (A) (A) (A) (A) (A) (A) (A) (A) (A)
                 (A) (A) (A) (A) (A) (A) (A) (A) (A) (A) (A) (A)
                 (A) (A) (A) (A) (A) (A) (A) (A) (A) (A) (A) (A)
                 (A) (A) (A) (A) (A) (A) (A) (A) (A) (A) (A) (A)
                 (A) (A) (A) (A) (A) (A) (A) (A) (A) (A) (A) (A)
                 (A) (A) (A) (A) (A) (A) (A) (A) (A) (A) (A) (A)
                 (A) (A) (A) (A) (A) (A) (A) (A) (A) (A) (A) (A)
                 (A) (A) (A) (A) (A) (A) (A) (A) (A) (A) (A) (A)
                 (A) (A) (A) (A) (A) (A) (A) (A) (A) (A) (A) (A)
                 (A) (A) (A) (A) (A) (A) (A) (A) (A) (A) (A) (A)
                 (A) (A) (A) (A) (A) (A) (A) (A) (A) (A) (A) (A)
                 (A) (A) (A) (A) (A) (A) (A) (A) (A) (A) (A) (A)
                 (A) (A) (A) (A) (A) (A) (A) (A) (A) (A) (A) (A)
                 (A) (A) (A) (A) (A) (A) (A) (A) (A) (A) (A) (A)
                 (A) (A) (A) (A) (A) (A) (A) (A) (A) (A) (A) (A)
                 (A) (A) (A) (A) (A) (A) (A) (A) (A) (A) (A) (A)
                 (A) (A) (A) (A) (A) (A) (A) (A) (A) (A) (A) (A)
                 (A) (A) (A) (A)
 The electronic state is 1-A.
 Alpha  occ. eigenvalues -- -101.85114 -19.41480 -19.34660 -19.32086 -14.58719
 Alpha  occ. eigenvalues --  -14.54951 -10.49668 -10.49522 -10.45649 -10.43935
 Alpha  occ. eigenvalues --  -10.43277 -10.42382 -10.41857 -10.41826 -10.41245
 Alpha  occ. eigenvalues --  -10.41124 -10.41091 -10.40964 -10.40434 -10.37547
 Alpha  occ. eigenvalues --  -10.37462 -10.37090 -10.36261 -10.36076 -10.35087
 Alpha  occ. eigenvalues --  -10.34898 -10.34288 -10.33609 -10.33559 -10.33151
 Alpha  occ. eigenvalues --   -9.72381  -7.43635  -7.42619  -7.42552  -3.46228
 Alpha  occ. eigenvalues --   -2.20496  -2.20378  -2.17398  -1.26756  -1.16536
 Alpha  occ. eigenvalues --   -1.15918  -1.13773  -1.07077  -1.02004  -0.97672
 Alpha  occ. eigenvalues --   -0.97276  -0.95809  -0.95563  -0.92410  -0.89929
 Alpha  occ. eigenvalues --   -0.87930  -0.87191  -0.84990  -0.81788  -0.81502
 Alpha  occ. eigenvalues --   -0.80170  -0.79939  -0.79497  -0.79179  -0.77309
 Alpha  occ. eigenvalues --   -0.76688  -0.72621  -0.72424  -0.70745  -0.68798
 Alpha  occ. eigenvalues --   -0.66999  -0.66053  -0.65782  -0.65279  -0.64694
 Alpha  occ. eigenvalues --   -0.63482  -0.61835  -0.60907  -0.60676  -0.59624
 Alpha  occ. eigenvalues --   -0.59238  -0.59169  -0.58974  -0.57926  -0.57572
 Alpha  occ. eigenvalues --   -0.57422  -0.56885  -0.56504  -0.55646  -0.54572
 Alpha  occ. eigenvalues --   -0.54503  -0.53759  -0.53511  -0.53372  -0.53126
 Alpha  occ. eigenvalues --   -0.52294  -0.51893  -0.51751  -0.51318  -0.51108
 Alpha  occ. eigenvalues --   -0.50978  -0.50513  -0.49671  -0.49072  -0.49039
 Alpha  occ. eigenvalues --   -0.48828  -0.48458  -0.48311  -0.48063  -0.47449
 Alpha  occ. eigenvalues --   -0.47213  -0.46589  -0.46547  -0.46311  -0.45659
 Alpha  occ. eigenvalues --   -0.45445  -0.45242  -0.44065  -0.43806  -0.43492
 Alpha  occ. eigenvalues --   -0.42506  -0.41522  -0.40739  -0.40558  -0.40422
 Alpha  occ. eigenvalues --   -0.39672  -0.38091  -0.37296  -0.35675  -0.35298
 Alpha virt. eigenvalues --   -0.20010  -0.18955  -0.17260  -0.16340  -0.13452
 Alpha virt. eigenvalues --   -0.12139  -0.11766  -0.11169  -0.10498  -0.10229
 Alpha virt. eigenvalues --   -0.10188  -0.09897  -0.09692  -0.09148  -0.08961
 Alpha virt. eigenvalues --   -0.08824  -0.08359  -0.08204  -0.07889  -0.07589
 Alpha virt. eigenvalues --   -0.07237  -0.07042  -0.06686  -0.06126  -0.05861
 Alpha virt. eigenvalues --   -0.05768  -0.05445  -0.05066  -0.04915  -0.04730
 Alpha virt. eigenvalues --   -0.04388  -0.04018  -0.03898  -0.03706  -0.03288
 Alpha virt. eigenvalues --   -0.03108  -0.02784  -0.02642  -0.02491  -0.02361
 Alpha virt. eigenvalues --   -0.02001  -0.01608  -0.01557  -0.01158  -0.00702
 Alpha virt. eigenvalues --   -0.00579  -0.00486  -0.00332  -0.00201   0.00225
 Alpha virt. eigenvalues --    0.00377   0.00538   0.00833   0.01062   0.01276
 Alpha virt. eigenvalues --    0.01701   0.02134   0.02167   0.02421   0.02599
 Alpha virt. eigenvalues --    0.02839   0.03055   0.03227   0.03574   0.03751
 Alpha virt. eigenvalues --    0.03989   0.04183   0.04418   0.04717   0.04982
 Alpha virt. eigenvalues --    0.05151   0.05203   0.05489   0.05686   0.05885
 Alpha virt. eigenvalues --    0.06135   0.06272   0.06604   0.06845   0.07316
 Alpha virt. eigenvalues --    0.07500   0.07619   0.07863   0.08130   0.08206
 Alpha virt. eigenvalues --    0.08291   0.08394   0.08820   0.08970   0.09206
 Alpha virt. eigenvalues --    0.09344   0.09730   0.09889   0.10062   0.10225
 Alpha virt. eigenvalues --    0.10278   0.10379   0.10650   0.10886   0.11216
 Alpha virt. eigenvalues --    0.11368   0.11441   0.11624   0.11789   0.12032
 Alpha virt. eigenvalues --    0.12250   0.12438   0.12666   0.12879   0.13001
 Alpha virt. eigenvalues --    0.13208   0.13362   0.13603   0.13794   0.14073
 Alpha virt. eigenvalues --    0.14248   0.14613   0.14843   0.15054   0.15186
 Alpha virt. eigenvalues --    0.15428   0.15698   0.15766   0.16055   0.16356
 Alpha virt. eigenvalues --    0.16363   0.16692   0.16942   0.17223   0.17362
 Alpha virt. eigenvalues --    0.17434   0.17626   0.17693   0.18375   0.18594
 Alpha virt. eigenvalues --    0.18794   0.19035   0.19605   0.19799   0.20253
 Alpha virt. eigenvalues --    0.20288   0.20467   0.21018   0.21293   0.21509
 Alpha virt. eigenvalues --    0.21981   0.22150   0.22235   0.22305   0.22806
 Alpha virt. eigenvalues --    0.23225   0.23409   0.23880   0.24084   0.24233
 Alpha virt. eigenvalues --    0.24503   0.24817   0.25254   0.25810   0.26010
 Alpha virt. eigenvalues --    0.26159   0.26468   0.26776   0.26939   0.27306
 Alpha virt. eigenvalues --    0.27953   0.28150   0.28305   0.28842   0.29139
 Alpha virt. eigenvalues --    0.29395   0.29631   0.29974   0.30499   0.31408
 Alpha virt. eigenvalues --    0.32066   0.32238   0.32689   0.33035   0.33670
 Alpha virt. eigenvalues --    0.34185   0.34757   0.35039   0.35234   0.35598
 Alpha virt. eigenvalues --    0.35801   0.36699   0.37120   0.38523   0.38835
 Alpha virt. eigenvalues --    0.39733   0.40673   0.41596   0.43147   0.43964
 Alpha virt. eigenvalues --    0.45929   0.46512   0.48813   0.49724   0.53408
 Alpha virt. eigenvalues --    0.54015   0.54437   0.55518   0.55738   0.56278
 Alpha virt. eigenvalues --    0.56657   0.57770   0.58062   0.58797   0.59085
 Alpha virt. eigenvalues --    0.59702   0.59930   0.60549   0.61082   0.61226
 Alpha virt. eigenvalues --    0.62148   0.62742   0.62841   0.63131   0.63849
 Alpha virt. eigenvalues --    0.64629   0.64722   0.65127   0.65839   0.65953
 Alpha virt. eigenvalues --    0.66142   0.66690   0.66991   0.67346   0.67917
 Alpha virt. eigenvalues --    0.68118   0.68482   0.69176   0.69353   0.70087
 Alpha virt. eigenvalues --    0.70651   0.71167   0.71653   0.72289   0.73008
 Alpha virt. eigenvalues --    0.73278   0.73599   0.73722   0.74596   0.75377
 Alpha virt. eigenvalues --    0.75734   0.75986   0.76580   0.77188   0.77515
 Alpha virt. eigenvalues --    0.77822   0.78357   0.78916   0.79427   0.79640
 Alpha virt. eigenvalues --    0.80443   0.80798   0.81426   0.81706   0.82342
 Alpha virt. eigenvalues --    0.82635   0.83394   0.83574   0.84157   0.84505
 Alpha virt. eigenvalues --    0.85320   0.86038   0.86697   0.87164   0.87587
 Alpha virt. eigenvalues --    0.88410   0.88523   0.89406   0.89811   0.89959
 Alpha virt. eigenvalues --    0.90542   0.90649   0.91367   0.91803   0.92663
 Alpha virt. eigenvalues --    0.93334   0.93913   0.94355   0.94628   0.95137
 Alpha virt. eigenvalues --    0.95537   0.96450   0.96742   0.97350   0.97860
 Alpha virt. eigenvalues --    0.98243   0.98965   0.99552   1.00496   1.00895
 Alpha virt. eigenvalues --    1.01522   1.02089   1.02159   1.02331   1.03094
 Alpha virt. eigenvalues --    1.03878   1.04488   1.04814   1.05621   1.05929
 Alpha virt. eigenvalues --    1.06118   1.06439   1.07411   1.08029   1.08390
 Alpha virt. eigenvalues --    1.09029   1.09339   1.10727   1.11392   1.12121
 Alpha virt. eigenvalues --    1.12445   1.12542   1.13467   1.14456   1.15569
 Alpha virt. eigenvalues --    1.16330   1.16652   1.17760   1.18464   1.19692
 Alpha virt. eigenvalues --    1.21493   1.21548   1.22272   1.22456   1.23217
 Alpha virt. eigenvalues --    1.23937   1.24788   1.25960   1.26549   1.28031
 Alpha virt. eigenvalues --    1.28163   1.28297   1.29050   1.29969   1.31296
 Alpha virt. eigenvalues --    1.31502   1.32225   1.32307   1.34011   1.34597
 Alpha virt. eigenvalues --    1.35062   1.35773   1.36896   1.37661   1.37928
 Alpha virt. eigenvalues --    1.39389   1.40771   1.41378   1.42224   1.43369
 Alpha virt. eigenvalues --    1.44470   1.45109   1.45945   1.47098   1.48588
 Alpha virt. eigenvalues --    1.49859   1.50984   1.51463   1.51678   1.52548
 Alpha virt. eigenvalues --    1.53385   1.56551   1.56969   1.57297   1.59260
 Alpha virt. eigenvalues --    1.59720   1.61415   1.62275   1.63680   1.63749
 Alpha virt. eigenvalues --    1.64580   1.66020   1.67306   1.67773   1.68484
 Alpha virt. eigenvalues --    1.69625   1.70027   1.70964   1.71463   1.72269
 Alpha virt. eigenvalues --    1.73725   1.74138   1.74960   1.75407   1.76198
 Alpha virt. eigenvalues --    1.76690   1.77733   1.77784   1.79038   1.79289
 Alpha virt. eigenvalues --    1.79914   1.80545   1.81152   1.82080   1.82789
 Alpha virt. eigenvalues --    1.83380   1.84174   1.85005   1.85616   1.87211
 Alpha virt. eigenvalues --    1.87648   1.88046   1.88142   1.90481   1.91328
 Alpha virt. eigenvalues --    1.91829   1.92696   1.93742   1.93993   1.94743
 Alpha virt. eigenvalues --    1.95032   1.96447   1.96978   1.97897   1.98607
 Alpha virt. eigenvalues --    1.99171   2.00390   2.01659   2.01773   2.02309
 Alpha virt. eigenvalues --    2.02720   2.03400   2.04544   2.05114   2.05576
 Alpha virt. eigenvalues --    2.06280   2.06599   2.07847   2.09818   2.10124
 Alpha virt. eigenvalues --    2.10874   2.11079   2.11794   2.12402   2.12618
 Alpha virt. eigenvalues --    2.13481   2.13650   2.14620   2.15308   2.15692
 Alpha virt. eigenvalues --    2.16919   2.17738   2.18174   2.19063   2.19443
 Alpha virt. eigenvalues --    2.19714   2.21225   2.22509   2.23756   2.25131
 Alpha virt. eigenvalues --    2.26478   2.26881   2.28400   2.28813   2.30059
 Alpha virt. eigenvalues --    2.31269   2.33931   2.36769   2.37803   2.37928
 Alpha virt. eigenvalues --    2.38561   2.38677   2.39669   2.41174   2.43397
 Alpha virt. eigenvalues --    2.44133   2.45233   2.46001   2.47850   2.49524
 Alpha virt. eigenvalues --    2.50226   2.51292   2.52295   2.54415   2.54868
 Alpha virt. eigenvalues --    2.55940   2.57912   2.59823   2.60607   2.62744
 Alpha virt. eigenvalues --    2.65888   2.66914   2.69520   2.69884   2.70716
 Alpha virt. eigenvalues --    2.71273   2.73093   2.73790   2.75685   2.76440
 Alpha virt. eigenvalues --    2.79776   2.80776   2.82516   2.86159   2.90823
 Alpha virt. eigenvalues --    2.92409   2.97360   2.99996   3.05311   3.14624
 Alpha virt. eigenvalues --    3.16418   3.26353  21.68352
          Condensed to atoms (all electrons):
 Mulliken charges:
               1
     1  C   -0.114713
     2  C   -0.488616
     3  C   -0.225606
     4  C   -0.181979
     5  H    0.254610
     6  C   -0.189977
     7  N    0.215564
     8  H    0.250404
     9  H    0.263810
    10  Cl   0.388162
    11  C    0.260741
    12  O   -0.241631
    13  N    0.060572
    14  C   -0.284179
    15  H    0.236483
    16  H    0.235042
    17  C   -0.447315
    18  C   -0.639014
    19  H    0.188506
    20  Pd  -0.471626
    21  C   -0.390685
    22  C   -1.012374
    23  C    0.627579
    24  C   -0.256048
    25  C   -0.383288
    26  H    0.232296
    27  H    0.230206
    28  C   -0.536375
    29  H    0.244809
    30  H    0.250556
    31  C   -0.517949
    32  C   -0.343523
    33  H    0.247595
    34  C    0.230068
    35  H    0.189897
    36  H    0.193175
    37  H    0.265075
    38  C   -0.277362
    39  H    0.276616
    40  H    0.224722
    41  H    0.227079
    42  O   -0.646948
    43  H    0.528177
    44  H    0.241211
    45  C   -0.104356
    46  O   -0.308908
    47  C   -0.102269
    48  H    0.275708
    49  H    0.256288
    50  H    0.215279
    51  H    0.254482
    52  H    0.204649
    53  H    0.243359
    54  C   -0.241988
    55  H    0.239970
    56  H    0.229708
    57  H    0.223427
    58  C   -0.355695
    59  H    0.231485
    60  H    0.244011
    61  H    0.216045
    62  C   -0.336045
    63  H    0.238493
    64  H    0.234654
    65  H    0.227955
 Sum of Mulliken charges =   1.00000
 Mulliken charges with hydrogens summed into heavy atoms:
               1
     1  C   -0.114713
     2  C   -0.224806
     3  C    0.024798
     4  C    0.072631
     6  C   -0.189977
     7  N    0.215564
    10  Cl   0.388162
    11  C    0.260741
    12  O   -0.241631
    13  N    0.060572
    14  C    0.187346
    17  C   -0.258809
    18  C   -0.639014
    20  Pd  -0.471626
    21  C    0.105008
    22  C   -1.012374
    23  C    1.103235
    24  C   -0.256048
    25  C    0.051567
    28  C    0.224065
    31  C   -0.517949
    32  C   -0.095927
    34  C    0.613140
    38  C    0.451055
    42  O   -0.118771
    45  C   -0.104356
    46  O   -0.308908
    47  C    0.645006
    54  C    0.451118
    58  C    0.335846
    62  C    0.365056
 APT charges:
               1
     1  C    0.143964
     2  C   -0.176605
     3  C    0.196748
     4  C   -0.160818
     5  H    0.087638
     6  C    0.508759
     7  N   -0.448907
     8  H    0.074466
     9  H    0.102476
    10  Cl  -0.261765
    11  C    0.921969
    12  O   -0.793403
    13  N   -0.692936
    14  C    0.324674
    15  H    0.029943
    16  H   -0.003723
    17  C    0.204369
    18  C    0.099263
    19  H   -0.007719
    20  Pd   0.179125
    21  C   -0.061391
    22  C   -0.446552
    23  C   -0.051804
    24  C    0.344369
    25  C    0.104640
    26  H   -0.002381
    27  H   -0.023751
    28  C   -0.026591
    29  H    0.019013
    30  H    0.034930
    31  C    0.296376
    32  C    0.202374
    33  H    0.007333
    34  C    0.508989
    35  H   -0.049747
    36  H   -0.053659
    37  H    0.034959
    38  C   -0.141375
    39  H    0.033120
    40  H    0.048939
    41  H    0.025466
    42  O   -0.699144
    43  H    0.286275
    44  H    0.011889
    45  C    1.035529
    46  O   -0.805152
    47  C   -0.029791
    48  H    0.052966
    49  H    0.030318
    50  H    0.010872
    51  H    0.021500
    52  H   -0.033951
    53  H   -0.020021
    54  C   -0.010305
    55  H    0.012396
    56  H   -0.005527
    57  H    0.004330
    58  C    0.016682
    59  H   -0.003115
    60  H    0.002884
    61  H   -0.001927
    62  C    0.000787
    63  H   -0.002819
    64  H   -0.004436
    65  H   -0.001015
 Sum of APT charges =   1.00000
 APT charges with hydrogens summed into heavy atoms:
               1
     1  C    0.143964
     2  C   -0.074130
     3  C    0.271214
     4  C   -0.073180
     6  C    0.508759
     7  N   -0.448907
    10  Cl  -0.261765
    11  C    0.921969
    12  O   -0.793403
    13  N   -0.692936
    14  C    0.350895
    17  C    0.196650
    18  C    0.099263
    20  Pd   0.179125
    21  C   -0.028001
    22  C   -0.446552
    23  C   -0.074206
    24  C    0.344369
    25  C    0.046938
    28  C    0.062311
    31  C    0.296376
    32  C    0.209707
    34  C    0.405584
    38  C   -0.033851
    42  O   -0.412869
    45  C    1.035529
    46  O   -0.805152
    47  C    0.064365
    54  C    0.000894
    58  C    0.014523
    62  C   -0.007483
 Electronic spatial extent (au):  <R**2>=          13098.9222
 Charge=              1.0000 electrons
 Dipole moment (field-independent basis, Debye):
    X=              6.0186    Y=              2.8386    Z=             -4.8049  Tot=              8.2078
 Quadrupole moment (field-independent basis, Debye-Ang):
   XX=           -155.9168   YY=           -162.2822   ZZ=           -194.3898
   XY=              0.8944   XZ=              8.4404   YZ=             -0.3452
 Traceless Quadrupole moment (field-independent basis, Debye-Ang):
   XX=             14.9462   YY=              8.5807   ZZ=            -23.5269
   XY=              0.8944   XZ=              8.4404   YZ=             -0.3452
 Octapole moment (field-independent basis, Debye-Ang**2):
  XXX=            293.2020  YYY=             -1.2263  ZZZ=            -14.6238  XYY=             24.2665
  XXY=             57.3209  XXZ=            -92.1886  XZZ=             18.4242  YZZ=            -12.0169
  YYZ=            -21.9980  XYZ=            -21.6070
 Hexadecapole moment (field-independent basis, Debye-Ang**3):
 XXXX=          -7625.8800 YYYY=          -6419.9526 ZZZZ=          -1835.5221 XXXY=             87.7030
 XXXZ=            224.4982 YYYX=            -75.9546 YYYZ=            -69.7819 ZZZX=             11.1655
 ZZZY=              8.4471 XXYY=          -2193.4458 XXZZ=          -1700.4615 YYZZ=          -1358.9993
 XXYZ=            115.4165 YYXZ=            -67.4171 ZZXY=            -98.2139
 N-N= 3.968995225059D+03 E-N=-1.222447741961D+04  KE= 1.766343994786D+03
  Exact polarizability: 422.682   1.872 349.543  -9.381 -21.200 267.776
 Approx polarizability: 599.247   3.608 502.109 -26.259 -48.385 441.700
   1 Symmetry operations used in ECPInt.
 ECPInt:  NShTT=   25878 NPrTT=  135610 LenC2=   23086 LenP2D=   72048.
 LDataN:  DoStor=T MaxTD1= 7 Len=  274
 Calling FoFJK, ICntrl=    100127 FMM=F ISym2X=0 I1Cent= 0 IOpClX= 0 NMat=1 NMatS=1 NMatT=0.
 Defaulting to unpruned grid for atomic number  46.
 Defaulting to unpruned grid for atomic number  46.
 Defaulting to unpruned grid for atomic number  46.
 Defaulting to unpruned grid for atomic number  46.
 Defaulting to unpruned grid for atomic number  46.
 Defaulting to unpruned grid for atomic number  46.
 Defaulting to unpruned grid for atomic number  46.
 Defaulting to unpruned grid for atomic number  46.
 Defaulting to unpruned grid for atomic number  46.
 Defaulting to unpruned grid for atomic number  46.
 Defaulting to unpruned grid for atomic number  46.
 Defaulting to unpruned grid for atomic number  46.
 Defaulting to unpruned grid for atomic number  46.
 Defaulting to unpruned grid for atomic number  46.
 Defaulting to unpruned grid for atomic number  46.
 Defaulting to unpruned grid for atomic number  46.
 Defaulting to unpruned grid for atomic number  46.
 Defaulting to unpruned grid for atomic number  46.
 Defaulting to unpruned grid for atomic number  46.
 Defaulting to unpruned grid for atomic number  46.
 Defaulting to unpruned grid for atomic number  46.
 Defaulting to unpruned grid for atomic number  46.
 Defaulting to unpruned grid for atomic number  46.
 Defaulting to unpruned grid for atomic number  46.
 Defaulting to unpruned grid for atomic number  46.
 Defaulting to unpruned grid for atomic number  46.
 Defaulting to unpruned grid for atomic number  46.
 Defaulting to unpruned grid for atomic number  46.
 Full mass-weighted force constant matrix:
 Low frequencies --- -245.6634   -0.0032   -0.0024   -0.0012    6.0600   10.6295
 Low frequencies ---   14.0442   26.6209   40.0416
 ******    1 imaginary frequencies (negative Signs) ****** 
 Diagonal vibrational polarizability:
       52.5455222      83.5651423      59.1573736
 Harmonic frequencies (cm**-1), IR intensities (KM/Mole), Raman scattering
 activities (A**4/AMU), depolarization ratios for plane and unpolarized
 incident light, reduced masses (AMU), force constants (mDyne/A),
 and normal coordinates:
                           1         2         3         4         5
                           A         A         A         A         A
       Frequencies ---  -245.6576   24.7825   39.8633   46.3534   56.1860
    Reduced masses ---     8.0767    4.9458    5.7371    4.5955    3.7477
   Force constants ---     0.2872    0.0018    0.0054    0.0058    0.0070
    IR Intensities ---     6.1851    0.1822    0.2034    0.6518    0.4722
 Coord Atom Element:
   1     1     6          0.01258   0.02130  -0.01913  -0.01392   0.00603
   2     1     6         -0.00310   0.00764  -0.03707   0.03704  -0.02013
   3     1     6          0.00289   0.04466  -0.06213   0.03091   0.03299
   1     2     6          0.00702   0.03292   0.00538  -0.03341   0.00564
   2     2     6          0.00115   0.02023  -0.07701   0.11662  -0.03683
   3     2     6         -0.00133   0.09949  -0.07730   0.14085  -0.00110
   1     3     6          0.00810   0.02090  -0.01139  -0.03907   0.01117
   2     3     6          0.00392   0.01429  -0.07925   0.17093  -0.04974
   3     3     6         -0.00083   0.13382  -0.01996   0.20863  -0.03074
   1     4     6          0.01322  -0.00323  -0.05237  -0.02953   0.01961
   2     4     6          0.00541  -0.00672  -0.03250   0.13081  -0.04725
   3     4     6          0.00021   0.11037   0.05401   0.15087  -0.02897
   1     5     1          0.01506  -0.01467  -0.06835  -0.03676   0.02644
   2     5     1          0.00873  -0.01572  -0.02277   0.15977  -0.05801
   3     5     1         -0.00206   0.13329   0.10348   0.19183  -0.05509
   1     6     6          0.01385  -0.01277  -0.07459  -0.00951   0.01949
   2     6     6          0.00593  -0.01873   0.00510   0.04478  -0.03046
   3     6     6          0.00265   0.05397   0.06282   0.03270   0.00615
   1     7     7          0.01680  -0.00047  -0.05463  -0.00063   0.01175
   2     7     7          0.00292  -0.00998  -0.00120   0.00697  -0.01505
   3     7     7          0.00638   0.02175   0.00261  -0.01795   0.03960
   1     8     1          0.00626   0.02957   0.00745  -0.05327   0.01065
   2     8     1          0.00574   0.02339  -0.11021   0.23570  -0.06222
   3     8     1         -0.00232   0.17656  -0.02937   0.29907  -0.05734
   1     9     1          0.00580   0.05008   0.03809  -0.04683   0.00229
   2     9     1         -0.00017   0.03342  -0.10317   0.13616  -0.04127
   3     9     1         -0.00295   0.11357  -0.12891   0.17525  -0.00680
   1    10    17          0.00910  -0.04269  -0.14388   0.00462   0.03186
   2    10    17          0.00390  -0.05115   0.07175  -0.02434  -0.03601
   3    10    17          0.00474   0.02118   0.15521  -0.05250  -0.00272
   1    11     6          0.01118   0.02926  -0.01192  -0.01781   0.00365
   2    11     6         -0.01401   0.01005  -0.02313  -0.01091  -0.02143
   3    11     6          0.00486   0.00180  -0.08231  -0.01785   0.04232
   1    12     8         -0.00234   0.05487  -0.00312  -0.04328  -0.00990
   2    12     8         -0.01757   0.00959  -0.01748  -0.02239  -0.06253
   3    12     8          0.00849  -0.00803  -0.07505  -0.03071  -0.02805
   1    13     7          0.01657   0.01272  -0.01636  -0.00596   0.01062
   2    13     7         -0.02496   0.01235  -0.00811  -0.03276   0.00075
   3    13     7          0.00875  -0.03204  -0.07031  -0.02342   0.09134
   1    14     6         -0.00352   0.06064  -0.00663  -0.04581  -0.01178
   2    14     6         -0.03023   0.01663   0.00645  -0.07566  -0.09412
   3    14     6          0.00492  -0.05753  -0.04166  -0.05391  -0.04377
   1    15     1         -0.01228   0.05734   0.01774  -0.08229  -0.02887
   2    15     1         -0.03259   0.01551   0.01566  -0.07292  -0.08304
   3    15     1          0.00357  -0.05693  -0.05251  -0.11333  -0.11695
   1    16     1          0.00135   0.09547  -0.03572  -0.02652  -0.00030
   2    16     1         -0.03400   0.02886  -0.00849  -0.14264  -0.16898
   3    16     1          0.00456  -0.06807  -0.03177  -0.04455  -0.03066
   1    17     6          0.00187   0.01961   0.00366  -0.01384  -0.00072
   2    17     6         -0.02865   0.01065   0.02915  -0.04030  -0.03638
   3    17     6          0.01081  -0.08470  -0.01408  -0.00469   0.02328
   1    18     6          0.00262  -0.04669   0.11044   0.05969  -0.03131
   2    18     6         -0.00787   0.00888   0.03887   0.00573   0.03786
   3    18     6          0.00377  -0.11134   0.02679   0.00775  -0.02303
   1    19     1          0.00401   0.04389  -0.04634  -0.03800   0.01982
   2    19     1         -0.03964   0.01016   0.05965  -0.05100  -0.08817
   3    19     1          0.01926  -0.12638   0.03137   0.05261   0.05755
   1    20    46         -0.06482   0.00471  -0.02362   0.00790   0.00234
   2    20    46         -0.03403   0.00453   0.00430  -0.02581   0.00143
   3    20    46         -0.03333  -0.02127  -0.01195  -0.03911   0.05831
   1    21     6         -0.01739  -0.02796  -0.01964  -0.00784   0.00827
   2    21     6         -0.01461   0.00911  -0.02512  -0.00580  -0.00302
   3    21     6         -0.00239   0.15861   0.03596   0.01631  -0.02431
   1    22     6         -0.06358   0.04410   0.00634   0.00474  -0.01077
   2    22     6          0.11759  -0.00789  -0.04958   0.01771  -0.00711
   3    22     6          0.05407   0.06510   0.00169  -0.00308  -0.00296
   1    23     6         -0.00988  -0.06708  -0.03531  -0.01368   0.01519
   2    23     6          0.15588  -0.00449  -0.01369  -0.03087   0.05035
   3    23     6          0.04926   0.05622   0.00511  -0.01465   0.01006
   1    24     6         -0.10169  -0.00428  -0.01127  -0.00458   0.00187
   2    24     6          0.46805   0.00186  -0.02800  -0.01379   0.01591
   3    24     6          0.12564   0.03216  -0.00824  -0.01416   0.00899
   1    25     6         -0.06256  -0.06160  -0.03172  -0.01481   0.00491
   2    25     6          0.01190   0.00695  -0.00621  -0.03221   0.02285
   3    25     6         -0.02424   0.12486   0.04306  -0.01677  -0.00239
   1    26     1         -0.08290  -0.08458  -0.04234  -0.01738   0.01162
   2    26     1          0.14322  -0.01569  -0.01067  -0.03592   0.07505
   3    26     1         -0.05678   0.01810   0.00075  -0.02665   0.03874
   1    27     1         -0.03708  -0.10869  -0.05075  -0.02255   0.01913
   2    27     1         -0.08156   0.01496   0.02407  -0.06250   0.02749
   3    27     1         -0.03632   0.14315   0.05093  -0.01422  -0.00782
   1    28     6          0.00766  -0.00465   0.03756  -0.03057   0.01220
   2    28     6          0.08407   0.01314  -0.00792  -0.01579   0.01679
   3    28     6          0.01310  -0.06792  -0.09924   0.02515  -0.03167
   1    29     1         -0.00645  -0.01233   0.04547  -0.03575   0.00969
   2    29     1          0.25505   0.03215  -0.01004  -0.01427   0.02123
   3    29     1          0.04992  -0.05344  -0.11301   0.03439  -0.02717
   1    30     1          0.06725   0.01025   0.02206  -0.02057   0.01601
   2    30     1          0.10891  -0.01483  -0.04004   0.00388  -0.00147
   3    30     1          0.02464  -0.06673  -0.10415   0.02833  -0.03188
   1    31     6          0.13990   0.00117   0.01097  -0.01373   0.01140
   2    31     6         -0.13741   0.00054   0.01836  -0.03465   0.01493
   3    31     6         -0.01460  -0.05576  -0.03029  -0.01479  -0.02558
   1    32     6          0.32298  -0.00547   0.02156  -0.02143   0.00315
   2    32     6         -0.24194   0.02090   0.02001  -0.03095   0.02881
   3    32     6         -0.07262  -0.04821  -0.05397  -0.00158  -0.01511
   1    33     1          0.17001  -0.01989   0.03043  -0.02747  -0.00559
   2    33     1         -0.03063   0.05129   0.05293  -0.05012   0.05229
   3    33     1         -0.03659  -0.04393  -0.04838  -0.00512  -0.01118
   1    34     6          0.13081  -0.00424   0.03059  -0.01997  -0.00281
   2    34     6         -0.01956   0.02564   0.07720  -0.06544   0.05936
   3    34     6          0.00470  -0.06109  -0.00155  -0.02408  -0.04152
   1    35     1          0.14028  -0.00152   0.00615  -0.01339   0.00784
   2    35     1         -0.03447   0.01075   0.09816  -0.06120   0.01962
   3    35     1         -0.01063  -0.05683   0.03029  -0.03722  -0.03771
   1    36     1          0.10418  -0.00717   0.02638  -0.01974  -0.00753
   2    36     1          0.00186   0.04721   0.08928  -0.08122   0.10759
   3    36     1          0.03249  -0.04053   0.01034  -0.03834   0.00347
   1    37     1         -0.19063  -0.01288   0.05818  -0.04332   0.01537
   2    37     1         -0.03722   0.01908   0.00986  -0.02637   0.02418
   3    37     1         -0.00786  -0.10155  -0.11621   0.03451  -0.04824
   1    38     6          0.07766   0.00962   0.00588  -0.01473   0.03493
   2    38     6         -0.05549  -0.03810  -0.02648  -0.01651  -0.02438
   3    38     6          0.04005  -0.07895  -0.05377  -0.00450  -0.05295
   1    39     1          0.08698  -0.00003   0.00177  -0.03386   0.03729
   2    39     1         -0.06927  -0.03306  -0.01935  -0.02512  -0.01587
   3    39     1          0.12323  -0.11325  -0.09074   0.01160  -0.08964
   1    40     1          0.03421   0.01838   0.00881  -0.00336   0.04032
   2    40     1         -0.01569  -0.06016  -0.05054  -0.02071  -0.03643
   3    40     1          0.06987  -0.07520  -0.03840  -0.01894  -0.05120
   1    41     1          0.03204   0.01662   0.00599  -0.00978   0.04416
   2    41     1         -0.00356  -0.05153  -0.04702   0.00908  -0.04872
   3    41     1         -0.01433  -0.07047  -0.05446   0.00279  -0.04119
   1    42     8          0.10162  -0.00728   0.09066  -0.03654  -0.02141
   2    42     8         -0.00898   0.04038   0.09404  -0.07869   0.09095
   3    42     8         -0.03518  -0.09729  -0.02722   0.00324  -0.12149
   1    43     1          0.13406  -0.01091   0.10078  -0.04233  -0.02626
   2    43     1         -0.05016   0.05362   0.13781  -0.09535   0.10919
   3    43     1          0.03310  -0.10697  -0.01834  -0.00375  -0.13453
   1    44     1          0.01617  -0.06447  -0.02945  -0.00422   0.03701
   2    44     1         -0.01483   0.01410  -0.01583  -0.01927  -0.00054
   3    44     1         -0.00387   0.14646   0.01153   0.05230  -0.03162
   1    45     6         -0.04240   0.03778   0.00380   0.00286  -0.00969
   2    45     6         -0.01874  -0.02226  -0.06040   0.05149   0.00461
   3    45     6          0.01454   0.13156   0.02542   0.01346  -0.01716
   1    46     8         -0.05912   0.08282   0.02089   0.01160  -0.02029
   2    46     8         -0.03662  -0.06016  -0.09466   0.12800   0.02065
   3    46     8          0.00013   0.16168   0.03552   0.02464  -0.02400
   1    47     6         -0.02576   0.10482   0.02816   0.01392  -0.02356
   2    47     6          0.08718  -0.00780  -0.06266   0.03457  -0.03778
   3    47     6          0.04143   0.04526  -0.00760  -0.00284  -0.00429
   1    48     1         -0.03688   0.11301   0.02481   0.02595  -0.00473
   2    48     1          0.02820  -0.02258  -0.07933   0.04816  -0.03442
   3    48     1          0.10151   0.06743   0.00968  -0.01150   0.00401
   1    49     1          0.03323   0.13952   0.04703   0.00848  -0.05052
   2    49     1          0.04374  -0.01923  -0.07442   0.04307  -0.03234
   3    49     1         -0.00997   0.05188  -0.01785   0.01345  -0.01795
   1    50     1         -0.02112   0.10725   0.02845   0.01473  -0.02273
   2    50     1          0.11667   0.01439  -0.04761   0.02520  -0.06854
   3    50     1          0.00735   0.00484  -0.01949  -0.01087   0.00053
   1    51     1         -0.02930  -0.02058  -0.01774  -0.00835   0.00104
   2    51     1         -0.04916   0.02322  -0.02346  -0.00674  -0.02381
   3    51     1         -0.01272   0.21511   0.06186   0.00996  -0.03915
   1    52     1         -0.15020  -0.03501  -0.01708  -0.01471  -0.02383
   2    52     1          0.02922   0.00605  -0.01584  -0.02185   0.01657
   3    52     1         -0.08263   0.13029   0.07310  -0.04595   0.01058
   1    53     1          0.09199  -0.10537  -0.05182  -0.01491   0.04026
   2    53     1          0.05393  -0.01052  -0.00863  -0.03843   0.07009
   3    53     1          0.20501   0.06244  -0.00393  -0.00329  -0.01717
   1    54     6          0.00526  -0.07168   0.16451   0.07852  -0.10038
   2    54     6         -0.00461  -0.00834   0.04423   0.06788   0.18392
   3    54     6         -0.00444  -0.05047  -0.06094  -0.10240  -0.11505
   1    55     1          0.00158  -0.13169   0.26442   0.14018  -0.11749
   2    55     1          0.01009   0.02246  -0.00489   0.07374   0.22122
   3    55     1         -0.01239  -0.09039   0.00457  -0.07723  -0.13840
   1    56     1         -0.00047  -0.10819   0.21382   0.12326  -0.05009
   2    56     1         -0.00737  -0.02912   0.06134   0.11127   0.28182
   3    56     1          0.01011   0.03226  -0.19419  -0.16570  -0.08706
   1    57     1          0.01551  -0.00022   0.06547  -0.00593  -0.18151
   2    57     1         -0.01434  -0.02882   0.07634   0.06226   0.15883
   3    57     1         -0.01381  -0.04711  -0.06019  -0.14879  -0.18735
   1    58     6          0.00700  -0.01640   0.08149   0.01308  -0.10186
   2    58     6         -0.00324   0.03241   0.03062  -0.05022  -0.10069
   3    58     6         -0.00724  -0.17568   0.12619   0.05752  -0.08449
   1    59     1          0.00743   0.00585   0.03253  -0.00699  -0.06594
   2    59     1         -0.00151   0.05469   0.01397  -0.10427  -0.22156
   3    59     1         -0.01015  -0.23889   0.22378   0.15911   0.01780
   1    60     1          0.00356  -0.07014   0.17364   0.07497  -0.10551
   2    60     1         -0.00356   0.01520   0.06806  -0.00024  -0.01642
   3    60     1         -0.00880  -0.19431   0.15483   0.06637  -0.12146
   1    61     1          0.01129   0.03459   0.02228  -0.06058  -0.18656
   2    61     1         -0.00241   0.04690   0.00370  -0.08990  -0.17087
   3    61     1         -0.00511  -0.14221   0.07376  -0.01590  -0.20232
   1    62     6         -0.01238  -0.11906   0.19908   0.16390   0.08161
   2    62     6          0.00960   0.01221   0.03663   0.03661   0.09046
   3    62     6          0.01745  -0.13470   0.05989   0.08552   0.08675
   1    63     1          0.03567  -0.12019   0.18786   0.17603   0.02258
   2    63     1          0.03318   0.01971   0.03002   0.06252   0.13593
   3    63     1          0.02925  -0.13841   0.05742   0.07998   0.04022
   1    64     1         -0.05473  -0.14210   0.23989   0.18715   0.16590
   2    64     1          0.04270   0.05463  -0.02725  -0.03345  -0.04193
   3    64     1          0.04611  -0.15769   0.08404   0.15038   0.14198
   1    65     1         -0.03288  -0.15501   0.24479   0.21150   0.14659
   2    65     1         -0.02967  -0.03499   0.10231   0.10488   0.21625
   3    65     1         -0.00891  -0.12368   0.05970   0.08410   0.16094
                           6         7         8         9        10
                           A         A         A         A         A
       Frequencies ---    56.8866   73.0681   84.7663   88.9532   95.9622
    Reduced masses ---     8.3867    4.5146    3.9089    4.7179    5.5342
   Force constants ---     0.0160    0.0142    0.0165    0.0220    0.0300
    IR Intensities ---     2.4619    0.2656    0.1824    1.3747    0.4210
 Coord Atom Element:
   1     1     6         -0.04407   0.00592   0.01617   0.05569   0.04241
   2     1     6         -0.03792  -0.00768   0.01519   0.00692   0.02012
   3     1     6         -0.01031  -0.00991   0.03211   0.00409  -0.04661
   1     2     6         -0.03957  -0.00841   0.03248   0.04145   0.05904
   2     2     6         -0.06298   0.02322  -0.00288   0.01819  -0.00701
   3     2     6         -0.04695   0.01326   0.03545  -0.01502  -0.05721
   1     3     6         -0.03943  -0.00811   0.02958   0.04982   0.04787
   2     3     6         -0.06804   0.06910  -0.04593   0.04522  -0.01167
   3     3     6         -0.05026   0.05153   0.00444  -0.02114  -0.01722
   1     4     6         -0.04248   0.00482   0.01020   0.06933   0.02033
   2     4     6         -0.03916   0.06987  -0.06352   0.05721   0.02162
   3     4     6         -0.00916   0.04894  -0.01612  -0.00981   0.03615
   1     5     1         -0.04214   0.00466   0.00708   0.07572   0.00886
   2     5     1         -0.03308   0.09498  -0.09700   0.07406   0.03076
   3     5     1         -0.00530   0.06856  -0.03368  -0.01333   0.07336
   1     6     6         -0.04664   0.01935  -0.00645   0.08067   0.00394
   2     6     6         -0.01470   0.03187  -0.03361   0.04619   0.04519
   3     6     6          0.02746   0.01543  -0.00593   0.00758   0.03522
   1     7     7         -0.04438   0.01726  -0.00602   0.07023   0.02152
   2     7     7         -0.01849   0.00208  -0.00181   0.01964   0.04074
   3     7     7          0.01997   0.00174   0.00991   0.01972  -0.01079
[...]
 0001541,0.00000207,0.00000532,0.00000539,-0.00000767,0.00000117,0.0000
 0127,0.00005142,-0.00004853,-0.00002883,-0.00000612,0.00000174,0.00000
 057,-0.00000084,-0.00000887,-0.00000094,0.00066942,0.00019863,-0.00023
 457,-0.00025684,0.00009780,0.00034274,0.00003482,-0.00015708,-0.000119
 37,0.00005376,-0.00003186,-0.00009344,-0.00000471,-0.00002396,0.000018
 76,-0.00004739,0.00005392,0.00001229,-0.00000791,0.00000478,-0.0000051
 9,-0.00000704,-0.00004870,-0.00001002,0.00000158,-0.00000552,-0.000034
 81,0.00019373,0.00113740,0.00075325,-0.00009145,-0.00040033,-0.0000950
 7,-0.00001687,-0.00002888,-0.00011766,0.00027276,0.00020756,-0.0000534
 8,-0.00080796,0.00132468,0.00027292,0.00012279,-0.00005250,-0.00007393
 ,0.00020609,-0.00017947,-0.00005104,-0.00019026,0.00018939,-0.00025656
 ,0.03918520,-0.08311117,-0.08584344,-0.04144974,0.09023453,-0.00007427
 ,0.00002204,-0.00000665,0.00008381,-0.00000986,0.00001030,-0.00004336,
 0.00001869,-0.00001827,-0.00000138,-0.00005367,0.00003570,-0.00000099,
 -0.00000163,0.00000159,0.00004127,0.00006626,-0.00005310,0.00002954,-0
 .00002463,0.00001178,0.00000436,-0.00000119,-0.00000009,-0.00002070,-0
 .00001116,0.00000136,0.00000641,-0.00004013,0.00003185,-0.00012187,0.0
 0002748,0.00001380,0.00053179,0.00004325,-0.00003885,-0.00024870,-0.00
 005768,0.00049680,0.00004004,-0.00106094,-0.00075071,-0.00000437,0.000
 05464,0.00007675,0.00015165,0.00026689,-0.00022783,0.00055640,0.004505
 02,-0.00150096,0.00732602,-0.00726969,-0.01849014,-0.00015907,0.000069
 63,0.00039412,0.00001199,0.00012296,-0.00009305,0.00002581,-0.00000500
 ,0.00001239,-0.00008726,-0.00011378,-0.00004495,-0.00000583,0.00002783
 ,0.00001056,-0.00002915,0.00007254,0.00001409,-0.00001538,0.00007513,0
 .00000970,-0.00001589,0.00000604,0.00002765,-0.00000101,-0.00003061,-0
 .00000896,0.00000307,-0.00000801,-0.00000806,-0.00000166,0.00000185,0.
 00000151,0.00000103,0.00000116,-0.00000071,-0.00000697,0.00001594,0.00
 000023,0.00003210,-0.00000496,0.00001805,-0.00000572,0.00000291,0.0000
 0126,-0.00001356,0.00001530,0.00001851,0.00000020,0.00000048,-0.000001
 40,0.00000094,-0.00000045,0.00000131,0.00000121,-0.00000111,-0.0000005
 9,0.00000886,-0.00002043,-0.00000772,-0.00000071,-0.00000352,0.0000067
 2,0.00000088,0.00000441,-0.00000013,-0.00000329,0.00000042,0.00000108,
 0.00001144,-0.00002237,-0.00001325,-0.00000360,0.00000471,0.00000104,-
 0.00000838,-0.00001263,0.00001078,0.00030436,0.00003648,-0.00018195,-0
 .00015432,0.00006436,0.00018413,-0.00005604,-0.00003991,-0.00001996,0.
 00006969,-0.00009107,-0.00005667,0.00001705,-0.00000591,0.00000384,0.0
 0001368,0.00000205,0.00000937,-0.00001059,-0.00000405,-0.00000248,0.00
 004965,-0.00004343,-0.00000885,0.00000532,-0.00001568,0.00000337,-0.00
 085663,-0.00109586,0.00066258,0.00015678,0.00017303,0.00047871,-0.0000
 0297,0.00008465,-0.00004035,-0.00026231,0.00010413,0.00020546,0.000474
 10,-0.00151255,0.00080537,-0.00000994,0.00006693,-0.00013705,-0.000363
 42,0.00055378,0.00007077,-0.00010037,0.00002396,0.00046568,0.08740661,
 -0.08421082,-0.23675728,-0.09625858,0.08917587,0.25607191,0.00005600,-
 0.00001967,-0.00000582,-0.00000357,0.00001580,-0.00001498,0.00002050,-
 0.00000165,0.00001075,0.00002059,0.00001767,-0.00002108,0.00000368,-0.
 00000197,-0.00000704,-0.00003948,-0.00000975,-0.00000552,0.00006377,0.
 00007720,0.00005353,0.00000058,-0.00000084,-0.00000220,0.00000975,-0.0
 0000242,-0.00001229,-0.00000290,0.00002291,-0.00000433,0.00003530,-0.0
 0004034,-0.00007507,0.00010941,0.00012002,-0.00008132,-0.00022359,0.00
 028969,0.00055901,0.00012184,0.00004847,0.00006740,0.00001395,0.000062
 87,-0.00008056,-0.00002512,-0.00000302,0.00004188,-0.00010584,-0.00053
 698,-0.00063771,-0.00654377,-0.00361144,-0.00297615,0.00001558,0.00009
 146,0.00044175,0.00003497,-0.00002901,0.00006389,0.00006460,0.00009920
 ,0.00004955,0.00012860,0.00045456,0.00028870,0.00007670,0.00002632,0.0
 0006092,-0.00018349,-0.00084930,-0.00003018,0.00005586,-0.00015276,-0.
 00010665,-0.00003087,0.00005670,-0.00004507,-0.00002668,-0.00002419,-0
 .00002134,0.00013253,-0.00015620,-0.00008319,0.00000875,0.00002660,0.0
 0000743,0.00000112,0.00002889,-0.00000831,-0.00010720,0.00018968,-0.00
 005710,-0.00036109,-0.00000247,0.00008374,-0.00001660,-0.00000233,-0.0
 0001347,-0.00008960,-0.00000774,0.00003950,0.00002748,-0.00000665,-0.0
 0000168,0.00000045,-0.00000578,-0.00000386,-0.00000701,-0.00005486,0.0
 0000375,0.00001285,-0.00005154,-0.00000204,0.00000040,-0.00000422,0.00
 001635,0.00000852,-0.00000157,0.00001036,-0.00000815,0.00001062,-0.000
 01220,0.00007003,-0.00003311,-0.00003212,-0.00000919,0.00000086,-0.000
 00030,-0.00002851,-0.00001457,0.00000550,0.00123101,0.00015471,-0.0001
 9669,-0.00065238,-0.00020358,0.00026917,-0.00009398,-0.00020774,-0.000
 09838,-0.00013874,0.00009058,-0.00039969,0.00005370,-0.00009672,-0.000
 00621,0.00006411,-0.00004398,-0.00003058,-0.00005359,0.00001860,-0.000
 00609,0.00002662,0.00001568,-0.00027565,-0.00000230,-0.00002337,-0.000
 07025,0.00032282,-0.00112935,0.00197347,0.00005209,0.00005179,-0.00017
 378,0.00032759,0.00020406,0.00006552,-0.00001173,-0.00057288,-0.000337
 06,0.00048919,0.00110180,-0.00012098,0.00031750,0.00030044,-0.00019242
 ,-0.00000314,0.00002590,0.00014292,0.00002827,0.00003159,0.00021104,-0
 .16987973,-0.10888892,-0.07545669,0.00918197,0.00848139,0.00518316,0.1
 8044043,0.00000394,-0.00002585,-0.00002942,-0.00000073,0.00000614,0.00
 000523,0.00001303,-0.00000010,0.00000735,0.00000527,0.00001506,-0.0000
 0563,0.00000079,-0.00000139,-0.00000288,-0.00001307,-0.00002549,0.0000
 2652,0.00000034,0.00000245,-0.00001596,0.00000120,-0.00000163,-0.00000
 239,0.00000737,-0.00000286,-0.00000992,-0.00000284,0.00001688,-0.00001
 562,0.00009196,-0.00018066,0.00003067,0.00014894,0.00013486,-0.0000010
 0,-0.00029723,-0.00009187,0.00010851,0.00019915,0.00000103,0.00000389,
 -0.00004750,0.00002240,-0.00008960,-0.00002455,0.00002430,0.00002873,0
 .00017010,0.00039526,-0.00101270,-0.01550197,-0.01450774,-0.01137740,-
 0.00018928,0.00032863,0.00068773,-0.00009365,0.00005059,0.00001932,0.0
 0000827,0.00004549,0.00002629,0.00055020,-0.00246964,-0.00134375,-0.00
 005352,0.00005434,0.00005232,0.00024534,-0.00121433,-0.00006405,0.0000
 6752,-0.00009507,0.00000968,0.00000331,0.00001244,0.00000810,-0.000009
 98,0.00001165,0.00002474,0.00001540,-0.00004460,-0.00001099,0.00000358
 ,0.00000606,-0.00000228,0.00001002,-0.00000364,-0.00001385,0.00001670,
 0.00002218,0.00003644,-0.00006683,-0.00000564,0.00000070,-0.00000761,0
 .00000267,0.00000077,0.00000038,-0.00001244,-0.00000331,0.00000002,-0.
 00000013,0.00000062,-0.00000114,0.00000235,-0.00000257,0.00000164,-0.0
 0000562,-0.00000397,0.00000137,0.00000760,-0.00000932,-0.00000594,-0.0
 0000081,0.00000454,-0.00000186,-0.00000035,-0.00000024,0.00000028,-0.0
 0000511,0.00000262,-0.00000421,0.00001187,0.00000617,0.00000090,-0.000
 00214,-0.00000237,0.00001306,-0.00003217,0.00003472,-0.00048141,-0.001
 64124,-0.00072653,-0.00001535,-0.00021956,0.00007765,0.00011839,-0.000
 23951,-0.00001811,-0.00004352,-0.00015922,0.00021712,-0.00004445,0.000
 05896,-0.00000873,-0.00005508,0.00000973,-0.00000796,0.00003673,0.0000
 5196,0.00004085,0.00000711,-0.00005927,-0.00020746,0.00004901,-0.00001
 912,0.00002215,-0.00044526,-0.00350402,0.00438410,0.00028189,0.0002765
 6,0.00018800,-0.00011539,0.00021071,-0.00001911,-0.00132771,-0.0007934
 5,-0.00054383,-0.00100297,0.00098666,-0.00114257,0.00045702,-0.0003223
 6,0.00069114,-0.00000310,-0.00020283,-0.00005872,0.00021605,0.00037066
 ,0.00007370,-0.10737588,-0.13970547,-0.06472769,-0.00781540,-0.0065759
 8,-0.00345714,0.12057477,0.15762069,0.00004459,-0.00000819,0.00003005,
 -0.00003216,0.00000420,-0.00001796,0.00001881,-0.00000412,0.00000555,0
 .00000474,0.00002009,-0.00001812,0.00000204,-0.00000051,-0.00000296,-0
 .00002024,-0.00001837,0.00001044,0.00001948,0.00004064,0.00002663,-0.0
 0000182,0.00000054,-0.00000062,0.00000806,0.00000589,0.00000053,-0.000
 00322,0.00001703,-0.00000775,0.00009028,0.00012882,-0.00000020,-0.0001
 8948,-0.00012747,0.00000185,-0.00024719,-0.00004537,-0.00002762,-0.000
 14392,0.00012182,0.00019902,0.00002248,0.00000242,0.00003375,-0.000019
 54,-0.00003352,0.00002860,0.00074447,0.00051779,0.00129509,0.01399026,
 0.01197213,0.00767295,-0.00061652,0.00015025,-0.00040955,0.00021732,-0
 .00003917,0.00000299,-0.00003576,0.00008904,-0.00002846,0.00041259,-0.
 00068122,-0.00037914,0.00008063,0.00006089,-0.00000228,-0.00012554,-0.
 00089197,0.00014808,0.00014525,-0.00078537,0.00011782,-0.00002152,0.00
 002521,-0.00006075,-0.00001978,0.00021410,0.00002293,0.00007453,-0.000
 07000,-0.00004185,0.00000499,0.00001040,0.00000166,-0.00000217,0.00002
 035,-0.00000596,-0.00006093,0.00008099,-0.00000042,-0.00023071,-0.0000
 3164,0.00003697,-0.00000541,0.00000035,-0.00001200,-0.00003343,-0.0000
 0834,0.00001000,0.00001083,-0.00000203,-0.00000090,0.00000305,-0.00000
 062,-0.00000684,-0.00000605,-0.00002551,0.00000171,-0.00000178,-0.0000
 2487,0.00000474,0.00000233,0.00000072,0.00000583,0.00000475,-0.0000029
 1,0.00000215,-0.00000253,0.00000618,-0.00001082,0.00001948,0.00000178,
 -0.00000692,-0.00000179,-0.00000238,-0.00000112,0.00001683,0.00004091,
 -0.00003623,-0.00082142,-0.00064775,0.00116989,0.00038234,-0.00043699,
 -0.00086263,-0.00000374,0.00009359,-0.00010135,-0.00038384,0.00039196,
 -0.00033799,-0.00000738,-0.00000787,-0.00004123,0.00007778,-0.00009706
 ,-0.00006886,0.00000125,0.00003146,0.00001772,0.00011776,0.00026959,-0
 .00029148,-0.00004101,0.00002653,-0.00003662,0.00066771,0.00254692,-0.
 00213727,-0.00008964,0.00031485,0.00015966,0.00004158,-0.00006338,-0.0
 0019600,0.00064830,0.00085423,0.00068438,0.00067747,-0.00030228,0.0007
 1089,-0.00013057,0.00022603,-0.00001375,-0.00015997,-0.00004172,-0.000
 05884,0.00019749,-0.00022227,0.00004452,-0.07553494,-0.06573434,-0.091
 46117,-0.01904050,-0.01433436,-0.00974444,0.08257954,0.07059867,0.0978
 0945,-0.00004212,0.00001912,0.00006699,0.00004198,-0.00001068,0.000000
 99,-0.00002334,0.00001352,-0.00001938,-0.00001543,-0.00004109,0.000045
 05,0.00000154,0.00000232,0.00000363,0.00000579,0.00008793,-0.00007440,
 0.00007558,-0.00003241,-0.00003548,0.00000211,-0.00000092,0.00000128,-
 0.00001258,-0.00000053,0.00000506,0.00001032,-0.00005686,0.00004029,0.
 00010361,0.00000753,0.00014219,0.00013930,-0.00034166,0.00006409,-0.00
 035152,-0.00032743,0.00181033,-0.00016723,-0.00009836,-0.00026533,-0.0
 0000839,-0.00004493,0.00003464,0.00004550,0.00004828,-0.00006563,-0.00
 007239,0.00098808,-0.00017485,0.00672231,-0.00560304,0.00103543,-0.000
 08545,0.00001141,0.00010309,0.00006788,0.00010086,-0.00008299,0.000054
 15,0.00000727,0.00001592,-0.00042986,0.00012474,-0.00010722,-0.0001211
 0,0.00003042,0.00001663,0.00019745,0.00075194,-0.00007740,-0.00000117,
 0.00014877,0.00004253,0.00002385,-0.00002905,0.00004954,0.00001902,-0.
 00003180,0.00000482,-0.00007658,0.00004159,0.00001822,-0.00000609,-0.0
 0000877,-0.00000173,0.00000959,-0.00003611,-0.00000444,0.00004250,-0.0
 0007025,-0.00001890,0.00024000,-0.00006832,-0.00006126,-0.00000229,0.0
 0000374,0.00001172,0.00004900,0.00000185,-0.00000368,-0.00001725,0.000
 00870,-0.00000135,-0.00000126,0.00001188,-0.00000201,-0.00000280,0.000
 02475,0.00000115,0.00001770,0.00003219,-0.00001091,-0.00001102,0.00000
 371,0.00000382,0.00000716,-0.00000204,-0.00000535,-0.00000709,-0.00002
 702,0.00001146,-0.00004987,0.00003521,0.00003076,0.00000726,-0.0000009
 5,-0.00000609,0.00000352,-0.00002541,0.00000952,-0.00068723,0.00003945
 ,0.00009888,0.00034792,-0.00017529,-0.00009409,0.00038729,0.00084415,0
 .00005629,-0.00026665,-0.00048174,0.00022798,-0.00000387,0.00022751,0.
 00018880,0.00007342,0.00002592,-0.00007915,0.00004363,0.00001656,0.000
 03519,-0.00000687,-0.00006863,-0.00000744,0.00004145,-0.00001122,0.000
 05762,0.00088389,-0.00031944,0.00015776,-0.00005666,0.00004397,-0.0001
 0633,0.00004783,-0.00017144,0.00003377,0.00018410,0.00015486,0.0000217
 8,0.00032451,-0.00063230,0.00046013,0.00013907,-0.00007432,0.00026971,
 0.00002450,-0.00029361,-0.00001622,0.00045849,-0.00015534,0.00020681,-
 0.21957292,0.11614331,-0.05070041,-0.00875001,0.00448608,-0.00360093,-
 0.01498081,0.01172639,-0.00329448,0.23498664,-0.00006916,-0.00003502,-
 0.00000604,0.00000387,-0.00001600,0.00001770,-0.00002161,0.00000183,0.
 00000612,-0.00000367,-0.00000706,0.00000666,-0.00000287,0.00000127,0.0
 0000446,-0.00000348,0.00001710,-0.00000071,-0.00002139,-0.00006709,-0.
 00009163,0.00000091,-0.00000103,0.00000118,-0.00000287,-0.00000328,0.0
 0000390,0.00000353,-0.00001285,-0.00000036,-0.00034697,-0.00020598,0.0
 0015174,-0.00015838,0.00049336,-0.00007379,0.00056656,0.00025852,-0.00
 096165,0.00021381,-0.00017905,-0.00000321,0.00009279,0.00004508,-0.000
 03813,-0.00000113,-0.00000493,0.00000455,0.00068540,0.00004210,-0.0007
 8536,0.01878584,-0.01269166,0.00397090,-0.00000624,-0.00009268,0.00008
 775,0.00015467,-0.00023625,-0.00028226,0.00005333,0.00003684,0.0000260
 7,0.00007574,0.00028628,-0.00031225,-0.00009460,0.00002398,0.00002623,
 0.00034204,0.00010446,0.00021156,-0.00004283,0.00000249,-0.00007218,0.
 00002742,-0.00002054,0.00003185,0.00000966,-0.00001539,-0.00000553,-0.
 00005305,0.00007024,0.00003129,-0.00000609,-0.00000675,0.00000419,0.00
 000151,-0.00000838,-0.00000161,0.00004027,-0.00004932,0.00006007,0.000
 19503,0.00001432,0.,0.00000304,0.00000451,0.00000770,0.00003564,0.0000
 0895,-0.00000921,-0.00001416,0.00000367,-0.00000003,-0.00000152,-0.000
 00067,0.00000826,0.00001033,0.00002147,-0.00000567,0.00000384,0.000016
 74,-0.00001198,-0.00000404,-0.00000236,0.00000393,-0.00001040,0.000007
 25,-0.00000525,0.00000049,-0.00000884,0.00001058,-0.00001990,-0.000008
 51,0.00000018,0.00000075,0.00000225,0.00000450,0.00000430,-0.00000239,
 -0.00000108,-0.00023245,0.00007336,0.00015053,0.00008493,-0.00012244,-
 0.00003962,0.00001441,-0.00064086,-0.00011553,-0.00006162,-0.00025450,
 0.00047896,0.00002414,0.00005917,0.00007466,0.00008451,-0.00033387,-0.
 00005400,0.00001996,0.00000892,0.00001836,-0.00001362,-0.00003374,0.00
 000274,0.00001843,0.00000508,0.00004063,0.00144421,0.00096609,-0.00007
 579,0.00007013,-0.00015321,-0.00001239,-0.00065349,-0.00041833,-0.0000
 2136,-0.00017683,0.00032812,-0.00010716,-0.00255176,-0.00362945,0.0033
 8341,0.00009620,0.00024305,0.00011221,-0.00038690,0.00024700,-0.000080
 75,0.00137627,-0.00062322,0.00068127,0.11489411,-0.12432238,0.03344541
 ,0.00839596,-0.00597451,0.00351907,-0.01589993,0.01141117,-0.00419482,
 -0.12697307,0.13537788,0.00008121,0.00003875,-0.00000283,-0.00007083,0
 .00001362,-0.00002182,0.00004076,-0.00002120,0.00001546,-0.00001314,0.
 00005374,-0.00004371,-0.00000235,0.00000028,0.00000157,-0.00000132,-0.
 00012666,0.00012276,-0.00003210,0.00000224,-0.00003557,-0.00000576,0.0
 0000318,0.00000051,0.00000651,0.00000944,0.00000599,-0.00001163,0.0000
 5666,-0.00004908,0.00060292,0.00062229,-0.00029408,0.00015111,-0.00079
 639,0.00022036,0.00083854,-0.00059807,-0.00148646,-0.00018125,0.000232
 37,0.00016130,-0.00007624,-0.00006699,0.00006365,0.00000649,-0.0000378
 1,0.00003076,-0.00148049,0.00033831,0.00072395,-0.01716080,0.01017333,
 -0.00548744,-0.00003407,0.00007168,-0.00011162,0.00030974,-0.00025692,
 -0.00050512,0.00002793,-0.00001642,0.00000414,0.00039487,0.00001272,0.
 00016558,0.00000870,0.00001936,-0.00005046,0.00007839,0.00028684,-0.00
 019694,0.00000237,0.00008759,0.00004185,0.00000277,0.00000248,-0.00000
 363,0.00002251,-0.00001722,0.00000756,-0.00002007,0.00001156,0.0000143
 8,0.00000819,0.00000475,-0.00001085,0.00000585,-0.00000208,0.00000342,
 -0.00004224,-0.00020914,0.00012394,-0.00007425,-0.00012188,-0.00001415
 ,-0.00001071,0.00003237,-0.00000104,0.00008777,0.00002741,-0.00003923,
 -0.00001452,0.00000186,-0.00000197,-0.00000016,0.00001598,-0.00001407,
 0.00000012,0.00001018,0.00000248,-0.00002194,0.00005060,0.00002689,0.0
 0000178,0.00001063,-0.00002786,-0.00000750,-0.00000745,-0.00000302,0.0
 0001212,0.00000302,-0.00000487,-0.00008264,0.00008300,0.00005431,0.000
 00915,0.00000026,-0.00000026,-0.00000049,-0.00001487,0.00000156,-0.000
 64743,0.00009811,0.00010785,0.00025507,-0.00008046,-0.00021170,-0.0000
 4518,0.00026329,0.00018132,0.00022977,0.00018353,0.00007513,-0.0000040
 7,-0.00000233,-0.00005137,-0.00004944,-0.00001020,-0.00001996,0.000023
 84,0.00000836,0.00001024,-0.00001388,-0.00001956,-0.00001179,0.0000200
 2,-0.00000427,0.00003276,-0.00034516,-0.00115385,0.00031786,0.00015405
 ,-0.00002583,-0.00001860,0.00010957,0.00004459,0.00053765,0.00003153,-
 0.00015726,-0.00015775,0.00206120,0.00296183,-0.00255995,0.00032236,-0
 .00019457,0.00005483,-0.00007632,0.00014869,0.00023549,-0.00101222,0.0
 0102128,0.00003695,-0.04920147,0.03294113,-0.06060807,0.02182172,-0.01
 430475,0.00804434,-0.01052277,0.00751805,-0.00382573,0.05353353,-0.039
 21923,0.06444413\\-0.00000555,0.00000429,-0.00001673,-0.00000867,0.000
 00461,-0.00002397,-0.00000634,0.00000906,-0.00002979,-0.00000034,0.000
 00979,-0.00002721,0.00000170,0.00001358,-0.00003188,0.00000265,0.00000
 976,-0.00002033,-0.00000021,0.00000634,-0.00001522,-0.00000965,0.00000
 866,-0.00003491,-0.00001386,0.00000331,-0.00002534,0.00001090,0.000012
 78,-0.00001777,-0.00000825,0.00000016,-0.00001147,-0.00001265,-0.00000
 164,-0.00001242,-0.00000342,-0.00000029,-0.00000603,-0.00001376,-0.000
 00342,-0.00000627,-0.00001469,-0.00000460,-0.00000767,-0.00001812,-0.0
 0000743,-0.00000438,-0.00000659,-0.00000281,-0.00000049,-0.00000165,-0
 .00000036,-0.00000040,-0.00000824,-0.00000651,0.00000401,0.00000333,0.
 00000343,-0.00000240,-0.00000116,-0.00000910,0.00002289,0.00000598,-0.
 00000099,0.00001365,-0.00000678,-0.00000693,0.00001020,0.00000136,-0.0
 0000483,0.00000684,-0.00000687,-0.00001009,0.00001600,-0.00001030,-0.0
 0000729,0.00000567,-0.00001233,-0.00001315,0.00001806,0.00000555,-0.00
 000185,0.00001256,0.00000376,-0.00000523,0.00001725,0.00001110,-0.0000
 0006,0.00001367,0.00000523,0.00000257,-0.00000038,-0.00000025,-0.00000
 012,0.00000572,-0.00000310,-0.00000421,0.00000521,-0.00000035,0.000002
 30,-0.00000773,0.00000139,0.00000548,-0.00001238,-0.00000505,0.0000008
 5,-0.00000740,0.00000636,-0.00000192,0.00001210,0.00001186,0.00000672,
 -0.00000090,0.00001397,0.00000641,0.00000075,0.00001355,0.00000928,-0.
 00000480,0.00001528,0.00000720,0.00000399,-0.00000039,0.00000154,-0.00
 000363,-0.00000166,0.00000224,-0.00000872,-0.00000088,-0.00001078,0.00
 002499,0.00000576,-0.00000488,0.00001868,0.00000992,-0.00000388,0.0000
 2421,0.00001431,0.00000221,0.00001038,0.00001562,0.00000370,0.00001117
 ,0.00001676,0.00000253,0.00001534,0.00001451,0.00000367,0.00000532,-0.
 00000171,-0.00001165,0.00002634,-0.00000749,-0.00000930,0.00001457,-0.
 00000775,-0.00000863,0.00001281,0.00000026,0.00000251,-0.00000756,0.00
 000393,0.00000388,-0.00000542,0.00000218,0.00000542,-0.00001013,-0.000
 00460,0.00000235,-0.00001034,-0.00000453,-0.00000383,0.00000369,-0.000
 00562,-0.00000644,0.00000962,-0.00000091,-0.00000229,0.00000568,-0.000
 00878,-0.00000597,0.00000143,0.00000566,0.00000025,0.00000454,0.000008
 40,0.00000265,0.00000576,0.00000447,-0.00000114,0.00000914,0.00000671,
 0.00000212,0.00000182\\\@


 10 WHATSOEVER THY HAND FINDETH TO DO, DO IT WITH THY  
 MIGHT. FOR THERE IS NO WORK, NOR DEVICE, NOR KNOWLEDGE, NOR  
 WISDOM, IN THE GRAVE, WHITHER THOU GOEST.                    
 11 I RETURNED AND SAW UNDER THE SUN, THAT THE RACE IS NOT TO 
 THE SWIFT, NOR THE BATTLE TO THE STRONG, NEITHER YET BREAD TO
 THE WISE, NOR YET RICHES TO MEN OF UNDERSTANDING, NOR YET    
 FAVOR TO MEN OF SKILL. BUT TIME AND CHANCE HAPPEN TO THEM ALL.
 12 FOR MAN ALSO KNOWETH NOT HIS TIME. AS THE FISHES   
 THAT ARE TAKEN IN AN EVIL NET, AND AS THE BIRDS THAT ARE     
 CAUGHT IN THE SNARE. SO ARE THE SONS OF MEN SNARED IN AN EVIL
 TIME, WHEN IT FALLETH SUDDENLY UPON THEM.
                                         ECCLESIASTES 9
 Job cpu time:       2 days 17 hours 56 minutes  1.7 seconds.
 File lengths (MBytes):  RWF=   7506 Int=      0 D2E=      0 Chk=     25 Scr=      1
 Normal termination of Gaussian 09 at Fri Feb  2 16:55:51 2018.
