 Entering Gaussian System, Link 0=g09
 Initial command:
 /sw/group/lms/sw/g09_D01/g09/l1.exe "/work/job.575659/Gau-12083.inp" -scrdir="/work/job.575659/"
 Default is to use a total of  28 processors:
                               28 via shared-memory
                                1 via Linda
 Entering Link 1 = /sw/group/lms/sw/g09_D01/g09/l1.exe PID=     12084.
  
 Copyright (c) 1988,1990,1992,1993,1995,1998,2003,2009,2013,
            Gaussian, Inc.  All Rights Reserved.
  
 This is part of the Gaussian(R) 09 program.  It is based on
 the Gaussian(R) 03 system (copyright 2003, Gaussian, Inc.),
 the Gaussian(R) 98 system (copyright 1998, Gaussian, Inc.),
 the Gaussian(R) 94 system (copyright 1995, Gaussian, Inc.),
 the Gaussian 92(TM) system (copyright 1992, Gaussian, Inc.),
 the Gaussian 90(TM) system (copyright 1990, Gaussian, Inc.),
 the Gaussian 88(TM) system (copyright 1988, Gaussian, Inc.),
 the Gaussian 86(TM) system (copyright 1986, Carnegie Mellon
 University), and the Gaussian 82(TM) system (copyright 1983,
 Carnegie Mellon University). Gaussian is a federally registered
 trademark of Gaussian, Inc.
  
 This software contains proprietary and confidential information,
 including trade secrets, belonging to Gaussian, Inc.
  
 This software is provided under written license and may be
 used, copied, transmitted, or stored only in accord with that
 written license.
  
 The following legend is applicable only to US Government
 contracts under FAR:
  
                    RESTRICTED RIGHTS LEGEND
  
 Use, reproduction and disclosure by the US Government is
 subject to restrictions as set forth in subparagraphs (a)
 and (c) of the Commercial Computer Software - Restricted
 Rights clause in FAR 52.227-19.
  
 Gaussian, Inc.
 340 Quinnipiac St., Bldg. 40, Wallingford CT 06492
  
  
 ---------------------------------------------------------------
 Warning -- This program may not be used in any manner that
 competes with the business of Gaussian, Inc. or will provide
 assistance to any competitor of Gaussian, Inc.  The licensee
 of this program is prohibited from giving any competitor of
 Gaussian, Inc. access to this program.  By using this program,
 the user acknowledges that Gaussian, Inc. is engaged in the
 business of creating and licensing software in the field of
 computational chemistry and represents and warrants to the
 licensee that it is not a competitor of Gaussian, Inc. and that
 it will not use this program in any manner prohibited above.
 ---------------------------------------------------------------
  

 Cite this work as:
 Gaussian 09, Revision D.01,
 M. J. Frisch, G. W. Trucks, H. B. Schlegel, G. E. Scuseria, 
 M. A. Robb, J. R. Cheeseman, G. Scalmani, V. Barone, B. Mennucci, 
 G. A. Petersson, H. Nakatsuji, M. Caricato, X. Li, H. P. Hratchian, 
 A. F. Izmaylov, J. Bloino, G. Zheng, J. L. Sonnenberg, M. Hada, 
 M. Ehara, K. Toyota, R. Fukuda, J. Hasegawa, M. Ishida, T. Nakajima, 
 Y. Honda, O. Kitao, H. Nakai, T. Vreven, J. A. Montgomery, Jr., 
 J. E. Peralta, F. Ogliaro, M. Bearpark, J. J. Heyd, E. Brothers, 
 K. N. Kudin, V. N. Staroverov, T. Keith, R. Kobayashi, J. Normand, 
 K. Raghavachari, A. Rendell, J. C. Burant, S. S. Iyengar, J. Tomasi, 
 M. Cossi, N. Rega, J. M. Millam, M. Klene, J. E. Knox, J. B. Cross, 
 V. Bakken, C. Adamo, J. Jaramillo, R. Gomperts, R. E. Stratmann, 
 O. Yazyev, A. J. Austin, R. Cammi, C. Pomelli, J. W. Ochterski, 
 R. L. Martin, K. Morokuma, V. G. Zakrzewski, G. A. Voth, 
 P. Salvador, J. J. Dannenberg, S. Dapprich, A. D. Daniels, 
 O. Farkas, J. B. Foresman, J. V. Ortiz, J. Cioslowski, 
 and D. J. Fox, Gaussian, Inc., Wallingford CT, 2013.
 
 ******************************************
 Gaussian 09:  ES64L-G09RevD.01 24-Apr-2013
                 2-Feb-2018 
 ******************************************
 %chk=Sub-10-Cl-18-tBu.S.1_2a_s_down.Cf1.chk
 ---------------------------------------------------------
 #M06/genecp denfit freq=(hpmodes,noraman,temperature=298)
 ---------------------------------------------------------
 1/10=4,30=1,38=1,112=298000/1,3;
 2/12=2,17=6,18=5,40=1/2;
 3/5=7,11=2,16=1,17=8,25=1,30=1,71=2,74=-54,82=47,140=1/1,2,3;
 4//1;
 5/5=2,38=5,98=1/2;
 8/6=4,10=90,11=11/1;
 11/6=1,8=1,9=11,15=111,16=1/1,2,10;
 10/6=1/2;
 6/7=2,8=2,9=2,10=2,18=1,28=1/1;
 7/8=11,10=1,25=1/1,2,3,16;
 1/10=4,30=1/3;
 99//99;
 -----------------------------------------------------
 Sub-10-Cl-18-tBu/S/1_2a_s_down/Cf1 step 4 (attempt 1)
 -----------------------------------------------------
 Symbolic Z-matrix:
 Charge =  1 Multiplicity = 1
 C                    0    -0.93054   2.29321  -0.83422 
 C                    0    -1.02639   3.50922  -1.48956 
 C                    0     0.04112   4.40218  -1.37375 
 C                    0     1.11484   4.06668  -0.56943 
 H                    0     1.94267   4.74991  -0.39782 
 C                    0     1.10297   2.81536   0.06126 
 N                    0     0.14474   1.91872  -0.10041 
 H                    0     0.01377   5.36472  -1.87989 
 H                    0    -1.91882   3.75475  -2.05945 
 Cl                   0     2.37213   2.46505   1.18397 
 C                    0    -2.0604    1.35732  -0.76835 
 O                    0    -3.23611   1.75655  -1.24186 
 N                    0    -2.00294   0.21746  -0.17725 
 C                    0    -4.13127   0.63015  -1.03449 
 H                    0    -5.09331   1.03251  -0.70754 
 H                    0    -4.25452   0.13381  -2.00561 
 C                    0    -3.3972   -0.23596  -0.00286 
 C                    0    -3.87399  -0.06501   1.46278 
 H                    0    -3.4738   -1.30193  -0.2656 
 Pd                   0     0.06112  -0.51542  -0.1027 
 C                    0     4.88297  -0.11099  -0.35995 
 C                    0     3.93016   0.44446  -1.40593 
 C                    0     2.73654  -0.49092  -1.56912 
 C                    0     2.11217  -0.83391  -0.2433 
 C                    0     2.76409  -0.79078   0.93702 
 H                    0     3.58755   1.44601  -1.10615 
 H                    0     1.98349  -0.05438  -2.24518 
 C                    0    -1.00779  -2.40945  -2.01539 
 H                    0    -0.40629  -1.75049  -2.66762 
 H                    0    -2.02354  -1.98241  -1.94273 
 C                    0    -0.37651  -2.51399  -0.64286 
 C                    0     1.04262  -2.64298  -0.62854 
 H                    0     1.48336  -2.58307  -1.62577 
 C                    0     1.73318  -3.60015   0.29163 
 H                    0     2.82277  -3.53771   0.19911 
 H                    0     1.46653  -3.46892   1.34505 
 H                    0     1.42102  -4.61511  -0.00134 
 C                    0    -1.19902  -3.24751   0.37544 
 H                    0    -2.24608  -2.92409   0.35193 
 H                    0    -1.19125  -4.32117   0.12907 
 H                    0    -0.82318  -3.13111   1.39875 
 O                    0    -1.04001  -3.73241  -2.51057 
 H                    0    -1.46963  -3.75909  -3.37736 
 H                    0     5.74575   0.54077  -0.17983 
 C                    0     4.19772  -0.35435   0.96166 
 O                    0     4.77137  -0.22141   2.02666 
 H                    0     5.2861   -1.0805   -0.70333 
 H                    0     4.44105   0.5604   -2.37081 
 H                    0     3.0865   -1.41427  -2.06592 
 C                    0     2.17284  -1.07763   2.27895 
 H                    0     2.76456  -1.82544   2.82381 
 H                    0     2.19778  -0.16909   2.89688 
 H                    0     1.12699  -1.40664   2.21285 
 C                    0    -3.86859   1.40276   1.89069 
 H                    0    -4.19846   1.4828    2.93497 
 H                    0    -2.86134   1.84271   1.83858 
 H                    0    -4.54991   2.02479   1.29352 
 C                    0    -5.2901   -0.63297   1.56634 
 H                    0    -5.32253  -1.69049   1.26526 
 H                    0    -5.64211  -0.57715   2.60498 
 H                    0    -6.01854  -0.08355   0.95408 
 C                    0    -2.96277  -0.85624   2.40114 
 H                    0    -3.30752  -0.74108   3.43743 
 H                    0    -2.98071  -1.93059   2.17093 
 H                    0    -1.9206   -0.50776   2.35616 
 

 GradGradGradGradGradGradGradGradGradGradGradGradGradGradGradGradGradGrad
 Berny optimization.
 Initialization pass.
 Trust Radius=3.00D-01 FncErr=1.00D-07 GrdErr=1.00D-07
 Number of steps in this run=      2 maximum allowed number of steps=      2.
 GradGradGradGradGradGradGradGradGradGradGradGradGradGradGradGradGradGrad

 Stoichiometry    C24H34ClN2O3Pd(1+)
 Framework group  C1[X(C24H34ClN2O3Pd)]
 Deg. of freedom   189
 Full point group                 C1      NOp   1
 Largest Abelian subgroup         C1      NOp   1
 Largest concise Abelian subgroup C1      NOp   1
                         Standard orientation:                         
 ---------------------------------------------------------------------
 Center     Atomic      Atomic             Coordinates (Angstroms)
 Number     Number       Type             X           Y           Z
 ---------------------------------------------------------------------
      1          6           0       -0.930537    2.293210   -0.834217
      2          6           0       -1.026387    3.509220   -1.489560
      3          6           0        0.041120    4.402181   -1.373748
      4          6           0        1.114840    4.066681   -0.569430
      5          1           0        1.942665    4.749908   -0.397821
      6          6           0        1.102973    2.815363    0.061262
      7          7           0        0.144743    1.918716   -0.100412
      8          1           0        0.013768    5.364721   -1.879892
      9          1           0       -1.918816    3.754751   -2.059455
     10         17           0        2.372134    2.465054    1.183967
     11          6           0       -2.060398    1.357321   -0.768352
     12          8           0       -3.236108    1.756549   -1.241860
     13          7           0       -2.002939    0.217456   -0.177253
     14          6           0       -4.131272    0.630153   -1.034485
     15          1           0       -5.093306    1.032511   -0.707544
     16          1           0       -4.254524    0.133807   -2.005606
     17          6           0       -3.397199   -0.235961   -0.002864
     18          6           0       -3.873992   -0.065014    1.462779
     19          1           0       -3.473796   -1.301928   -0.265597
     20         46           0        0.061118   -0.515417   -0.102699
     21          6           0        4.882967   -0.110993   -0.359945
     22          6           0        3.930161    0.444461   -1.405929
     23          6           0        2.736537   -0.490921   -1.569123
     24          6           0        2.112165   -0.833906   -0.243297
     25          6           0        2.764088   -0.790784    0.937021
     26          1           0        3.587545    1.446013   -1.106153
     27          1           0        1.983493   -0.054383   -2.245184
     28          6           0       -1.007795   -2.409453   -2.015390
     29          1           0       -0.406292   -1.750489   -2.667622
     30          1           0       -2.023543   -1.982408   -1.942732
     31          6           0       -0.376507   -2.513988   -0.642857
     32          6           0        1.042619   -2.642984   -0.628535
     33          1           0        1.483363   -2.583069   -1.625766
     34          6           0        1.733182   -3.600149    0.291632
     35          1           0        2.822768   -3.537705    0.199105
     36          1           0        1.466529   -3.468924    1.345050
     37          1           0        1.421017   -4.615107   -0.001339
     38          6           0       -1.199017   -3.247505    0.375441
     39          1           0       -2.246084   -2.924085    0.351930
     40          1           0       -1.191252   -4.321174    0.129072
     41          1           0       -0.823178   -3.131113    1.398754
     42          8           0       -1.040006   -3.732414   -2.510569
     43          1           0       -1.469628   -3.759092   -3.377357
     44          1           0        5.745751    0.540765   -0.179829
     45          6           0        4.197715   -0.354347    0.961662
     46          8           0        4.771375   -0.221407    2.026663
     47          1           0        5.286098   -1.080501   -0.703330
     48          1           0        4.441046    0.560402   -2.370807
     49          1           0        3.086498   -1.414265   -2.065922
     50          6           0        2.172838   -1.077625    2.278951
     51          1           0        2.764562   -1.825442    2.823813
     52          1           0        2.197777   -0.169090    2.896884
     53          1           0        1.126988   -1.406639    2.212851
     54          6           0       -3.868587    1.402758    1.890687
     55          1           0       -4.198461    1.482802    2.934973
     56          1           0       -2.861341    1.842707    1.838579
     57          1           0       -4.549914    2.024794    1.293523
     58          6           0       -5.290101   -0.632971    1.566335
     59          1           0       -5.322533   -1.690492    1.265257
     60          1           0       -5.642110   -0.577154    2.604984
     61          1           0       -6.018537   -0.083546    0.954077
     62          6           0       -2.962768   -0.856236    2.401139
     63          1           0       -3.307518   -0.741075    3.437433
     64          1           0       -2.980710   -1.930585    2.170929
     65          1           0       -1.920597   -0.507761    2.356162
 ---------------------------------------------------------------------
 Rotational constants (GHZ):      0.1719409      0.1174734      0.0900551
 General basis read from cards:  (5D, 7F)
 ======================================================================================================
                                       Pseudopotential Parameters
 ======================================================================================================
  Center     Atomic      Valence      Angular      Power
  Number     Number     Electrons     Momentum     of R      Exponent        Coefficient   SO-Coeffient
 ======================================================================================================
    1          6
                                   No pseudopotential on this center.
    2          6
                                   No pseudopotential on this center.
    3          6
                                   No pseudopotential on this center.
    4          6
                                   No pseudopotential on this center.
    5          1
                                   No pseudopotential on this center.
    6          6
                                   No pseudopotential on this center.
    7          7
                                   No pseudopotential on this center.
    8          1
                                   No pseudopotential on this center.
    9          1
                                   No pseudopotential on this center.
   10         17
                                   No pseudopotential on this center.
   11          6
                                   No pseudopotential on this center.
   12          8
                                   No pseudopotential on this center.
   13          7
                                   No pseudopotential on this center.
   14          6
                                   No pseudopotential on this center.
   15          1
                                   No pseudopotential on this center.
   16          1
                                   No pseudopotential on this center.
   17          6
                                   No pseudopotential on this center.
   18          6
                                   No pseudopotential on this center.
   19          1
                                   No pseudopotential on this center.
   20         46           18
                                      F and up 
                                                     0      598.3336444       -0.05631770    0.00000000
                                                     1      162.4298290      -20.12880360    0.00000000
                                                     2       51.5714771     -105.81979230    0.00000000
                                                     2       16.4888260      -42.57333450    0.00000000
                                                     2        5.8287656       -3.61650860    0.00000000
                                      S - F
                                                     0       73.3806304        3.00036510    0.00000000
                                                     1       14.7550438       32.43500930    0.00000000
                                                     2       17.8350204      459.08303830    0.00000000
                                                     2       12.7111477     -868.06290290    0.00000000
                                                     2        9.3292063      514.47260980    0.00000000
                                      P - F
                                                     0       55.6689877        4.95930990    0.00000000
                                                     1       64.2337771       21.17110290    0.00000000
                                                     2       17.6254952      605.05600920    0.00000000
                                                     2       11.9058155     -726.96418460    0.00000000
                                                     2        8.5100832      396.32748830    0.00000000
                                      D - F
                                                     0       49.9994728        3.05087450    0.00000000
                                                     1       39.7477547       22.25065800    0.00000000
                                                     2       11.4321366      674.83576980    0.00000000
                                                     2        9.1790080    -1040.85540480    0.00000000
                                                     2        7.5624429      505.93751470    0.00000000
   21          6
                                   No pseudopotential on this center.
   22          6
                                   No pseudopotential on this center.
   23          6
                                   No pseudopotential on this center.
   24          6
                                   No pseudopotential on this center.
   25          6
                                   No pseudopotential on this center.
   26          1
                                   No pseudopotential on this center.
   27          1
                                   No pseudopotential on this center.
   28          6
                                   No pseudopotential on this center.
   29          1
                                   No pseudopotential on this center.
   30          1
                                   No pseudopotential on this center.
   31          6
                                   No pseudopotential on this center.
   32          6
                                   No pseudopotential on this center.
   33          1
                                   No pseudopotential on this center.
   34          6
                                   No pseudopotential on this center.
   35          1
                                   No pseudopotential on this center.
   36          1
                                   No pseudopotential on this center.
   37          1
                                   No pseudopotential on this center.
   38          6
                                   No pseudopotential on this center.
   39          1
                                   No pseudopotential on this center.
   40          1
                                   No pseudopotential on this center.
   41          1
                                   No pseudopotential on this center.
   42          8
                                   No pseudopotential on this center.
   43          1
                                   No pseudopotential on this center.
   44          1
                                   No pseudopotential on this center.
   45          6
                                   No pseudopotential on this center.
   46          8
                                   No pseudopotential on this center.
   47          1
                                   No pseudopotential on this center.
   48          1
                                   No pseudopotential on this center.
   49          1
                                   No pseudopotential on this center.
   50          6
                                   No pseudopotential on this center.
   51          1
                                   No pseudopotential on this center.
   52          1
                                   No pseudopotential on this center.
   53          1
                                   No pseudopotential on this center.
   54          6
                                   No pseudopotential on this center.
   55          1
                                   No pseudopotential on this center.
   56          1
                                   No pseudopotential on this center.
   57          1
                                   No pseudopotential on this center.
   58          6
                                   No pseudopotential on this center.
   59          1
                                   No pseudopotential on this center.
   60          1
                                   No pseudopotential on this center.
   61          1
                                   No pseudopotential on this center.
   62          6
                                   No pseudopotential on this center.
   63          1
                                   No pseudopotential on this center.
   64          1
                                   No pseudopotential on this center.
   65          1
                                   No pseudopotential on this center.
 ======================================================================================================
 There are   666 symmetry adapted cartesian basis functions of A   symmetry.
 There are   634 symmetry adapted basis functions of A   symmetry.
   634 basis functions,  1169 primitive gaussians,   666 cartesian basis functions
   125 alpha electrons      125 beta electrons
       nuclear repulsion energy      3978.6471664243 Hartrees.
 NAtoms=   65 NActive=   65 NUniq=   65 SFac= 1.00D+00 NAtFMM=   60 NAOKFM=T Big=T
 Integral buffers will be    131072 words long.
 Raffenetti 2 integral format.
 Two-electron integral symmetry is turned on.
 Standard density basis: Auto (5D, 7F)
  2775 Density fitting functions
 There are  2775 symmetry adapted density basis functions of A   symmetry.
 One-electron integrals computed using PRISM.
   1 Symmetry operations used in ECPInt.
 ECPInt:  NShTT=   25878 NPrTT=  135610 LenC2=   22999 LenP2D=   71644.
 LDataN:  DoStor=T MaxTD1= 5 Len=  102
 NBasis=   634 RedAO= T EigKep=  1.83D-06  NBF=   634
 NBsUse=   632 1.00D-06 EigRej=  9.75D-07 NBFU=   632
 Defaulting to unpruned grid for atomic number  46.
 ExpMin= 2.62D-02 ExpMax= 2.52D+04 ExpMxC= 3.78D+03 IAcc=3 IRadAn=         5 AccDes= 0.00D+00
 Harris functional with IExCor= 1009 and IRadAn=       5 diagonalized for initial guess.
 HarFok:  IExCor= 1009 AccDes= 0.00D+00 IRadAn=         5 IDoV= 1 UseB2=F ITyADJ=14
 ICtDFT=  3500011 ScaDFX=  1.000000  1.000000  1.000000  1.000000
 Defaulting to unpruned grid for atomic number  46.
 Defaulting to unpruned grid for atomic number  46.
 Defaulting to unpruned grid for atomic number  46.
 Defaulting to unpruned grid for atomic number  46.
 Defaulting to unpruned grid for atomic number  46.
 Defaulting to unpruned grid for atomic number  46.
 Defaulting to unpruned grid for atomic number  46.
 Defaulting to unpruned grid for atomic number  46.
 Defaulting to unpruned grid for atomic number  46.
 Defaulting to unpruned grid for atomic number  46.
 Defaulting to unpruned grid for atomic number  46.
 Defaulting to unpruned grid for atomic number  46.
 Defaulting to unpruned grid for atomic number  46.
 Defaulting to unpruned grid for atomic number  46.
 Defaulting to unpruned grid for atomic number  46.
 Defaulting to unpruned grid for atomic number  46.
 Defaulting to unpruned grid for atomic number  46.
 Defaulting to unpruned grid for atomic number  46.
 Defaulting to unpruned grid for atomic number  46.
 Defaulting to unpruned grid for atomic number  46.
 Defaulting to unpruned grid for atomic number  46.
 Defaulting to unpruned grid for atomic number  46.
 Defaulting to unpruned grid for atomic number  46.
 Defaulting to unpruned grid for atomic number  46.
 Defaulting to unpruned grid for atomic number  46.
 Defaulting to unpruned grid for atomic number  46.
 Defaulting to unpruned grid for atomic number  46.
 Defaulting to unpruned grid for atomic number  46.
 FoFCou: FMM=F IPFlag=           0 FMFlag=      100000 FMFlg1=        2001
         NFxFlg=           0 DoJE=T BraDBF=F KetDBF=T FulRan=T
         wScrn=  0.000000 ICntrl=     500 IOpCl=  0 I1Cent=   200000004 NGrid=           0
         NMat0=    1 NMatS0=      1 NMatT0=    0 NMatD0=    1 NMtDS0=    0 NMtDT0=    0
 Petite list used in FoFCou.
 Requested convergence on RMS density matrix=1.00D-08 within 128 cycles.
 Requested convergence on MAX density matrix=1.00D-06.
 Requested convergence on             energy=1.00D-06.
 No special actions if energy rises.
 Defaulting to unpruned grid for atomic number  46.
 Defaulting to unpruned grid for atomic number  46.
 Defaulting to unpruned grid for atomic number  46.
 Defaulting to unpruned grid for atomic number  46.
 Defaulting to unpruned grid for atomic number  46.
 Defaulting to unpruned grid for atomic number  46.
 Defaulting to unpruned grid for atomic number  46.
 Defaulting to unpruned grid for atomic number  46.
 Defaulting to unpruned grid for atomic number  46.
 Defaulting to unpruned grid for atomic number  46.
 Defaulting to unpruned grid for atomic number  46.
 Defaulting to unpruned grid for atomic number  46.
 Defaulting to unpruned grid for atomic number  46.
 Defaulting to unpruned grid for atomic number  46.
 Defaulting to unpruned grid for atomic number  46.
 Defaulting to unpruned grid for atomic number  46.
 Defaulting to unpruned grid for atomic number  46.
 Defaulting to unpruned grid for atomic number  46.
 Defaulting to unpruned grid for atomic number  46.
 Defaulting to unpruned grid for atomic number  46.
 Defaulting to unpruned grid for atomic number  46.
 Defaulting to unpruned grid for atomic number  46.
 Defaulting to unpruned grid for atomic number  46.
 Defaulting to unpruned grid for atomic number  46.
 Defaulting to unpruned grid for atomic number  46.
 Defaulting to unpruned grid for atomic number  46.
 Defaulting to unpruned grid for atomic number  46.
 Defaulting to unpruned grid for atomic number  46.
 EnCoef did   100 forward-backward iterations
 EnCoef did   100 forward-backward iterations
 EnCoef did   100 forward-backward iterations
 Restarting incremental Fock formation.
 SCF Done:  E(RM06) =  -1856.01779542     A.U. after   25 cycles
            NFock= 25  Conv=0.73D-08     -V/T= 2.0508
 DoSCS=F DFT=T ScalE2(SS,OS)=  1.000000  1.000000
 Range of M.O.s used for correlation:     1   632
 NBasis=   634 NAE=   125 NBE=   125 NFC=     0 NFV=     0
 NROrb=    632 NOA=   125 NOB=   125 NVA=   507 NVB=   507

 **** Warning!!: The largest alpha MO coefficient is  0.10439006D+03

   1 Symmetry operations used in ECPInt.
 ECPInt:  NShTT=   25878 NPrTT=  135610 LenC2=   22999 LenP2D=   71644.
 LDataN:  DoStor=T MaxTD1= 6 Len=  172
 Number of processors reduced to   9 by ecpmxn.
 Symmetrizing basis deriv contribution to polar:
 IMax=3 JMax=2 DiffMx= 0.00D+00
 G2DrvN: will do    66 centers at a time, making    1 passes.
 Calling FoFCou, ICntrl=  3107 FMM=T I1Cent=   0 AccDes= 0.00D+00.
 Defaulting to unpruned grid for atomic number  46.
 Defaulting to unpruned grid for atomic number  46.
 Defaulting to unpruned grid for atomic number  46.
 Defaulting to unpruned grid for atomic number  46.
 Defaulting to unpruned grid for atomic number  46.
 Defaulting to unpruned grid for atomic number  46.
 Defaulting to unpruned grid for atomic number  46.
 Defaulting to unpruned grid for atomic number  46.
 Defaulting to unpruned grid for atomic number  46.
 Defaulting to unpruned grid for atomic number  46.
 Defaulting to unpruned grid for atomic number  46.
 Defaulting to unpruned grid for atomic number  46.
 Defaulting to unpruned grid for atomic number  46.
 Defaulting to unpruned grid for atomic number  46.
 Defaulting to unpruned grid for atomic number  46.
 Defaulting to unpruned grid for atomic number  46.
 Defaulting to unpruned grid for atomic number  46.
 Defaulting to unpruned grid for atomic number  46.
 Defaulting to unpruned grid for atomic number  46.
 Defaulting to unpruned grid for atomic number  46.
 Defaulting to unpruned grid for atomic number  46.
 Defaulting to unpruned grid for atomic number  46.
 Defaulting to unpruned grid for atomic number  46.
 Defaulting to unpruned grid for atomic number  46.
 Defaulting to unpruned grid for atomic number  46.
 Defaulting to unpruned grid for atomic number  46.
 Defaulting to unpruned grid for atomic number  46.
 Defaulting to unpruned grid for atomic number  46.
 End of G2Drv F.D. properties file   721 does not exist.
 End of G2Drv F.D. properties file   722 does not exist.
 End of G2Drv F.D. properties file   788 does not exist.
          IDoAtm=11111111111111111111111111111111111111111111111111
          IDoAtm=111111111111111
          Differentiating once with respect to electric field.
                with respect to dipole field.
          Differentiating once with respect to nuclear coordinates.
 Defaulting to unpruned grid for atomic number  46.
 CalDSu exits because no D1Ps are significant.
 Defaulting to unpruned grid for atomic number  46.
 Defaulting to unpruned grid for atomic number  46.
 Defaulting to unpruned grid for atomic number  46.
 Defaulting to unpruned grid for atomic number  46.
 Defaulting to unpruned grid for atomic number  46.
 Defaulting to unpruned grid for atomic number  46.
 Defaulting to unpruned grid for atomic number  46.
 Defaulting to unpruned grid for atomic number  46.
 Defaulting to unpruned grid for atomic number  46.
 Defaulting to unpruned grid for atomic number  46.
 Defaulting to unpruned grid for atomic number  46.
 Defaulting to unpruned grid for atomic number  46.
 Defaulting to unpruned grid for atomic number  46.
 Defaulting to unpruned grid for atomic number  46.
 Defaulting to unpruned grid for atomic number  46.
 Defaulting to unpruned grid for atomic number  46.
 Defaulting to unpruned grid for atomic number  46.
 Defaulting to unpruned grid for atomic number  46.
 Defaulting to unpruned grid for atomic number  46.
 Defaulting to unpruned grid for atomic number  46.
 Defaulting to unpruned grid for atomic number  46.
 Defaulting to unpruned grid for atomic number  46.
 Defaulting to unpruned grid for atomic number  46.
 Defaulting to unpruned grid for atomic number  46.
 Defaulting to unpruned grid for atomic number  46.
 Defaulting to unpruned grid for atomic number  46.
 Defaulting to unpruned grid for atomic number  46.
 Defaulting to unpruned grid for atomic number  46.
          There are   198 degrees of freedom in the 1st order CPHF.  IDoFFX=6 NUNeed=     3.
    198 vectors produced by pass  0 Test12= 6.34D-14 1.00D-09 XBig12= 4.01D+02 6.70D+00.
 AX will form    84 AO Fock derivatives at one time.
    198 vectors produced by pass  1 Test12= 6.34D-14 1.00D-09 XBig12= 1.02D+02 1.30D+00.
    195 vectors produced by pass  2 Test12= 6.34D-14 1.00D-09 XBig12= 1.85D+00 1.01D-01.
    195 vectors produced by pass  3 Test12= 6.34D-14 1.00D-09 XBig12= 1.09D-02 9.32D-03.
    195 vectors produced by pass  4 Test12= 6.34D-14 1.00D-09 XBig12= 5.30D-05 7.62D-04.
    195 vectors produced by pass  5 Test12= 6.34D-14 1.00D-09 XBig12= 1.64D-07 2.62D-05.
    194 vectors produced by pass  6 Test12= 6.34D-14 1.00D-09 XBig12= 3.88D-10 8.98D-07.
    192 vectors produced by pass  7 Test12= 6.34D-14 1.00D-09 XBig12= 2.23D-12 6.22D-08.
    192 vectors produced by pass  8 Test12= 6.34D-14 1.00D-09 XBig12= 1.84D-13 2.41D-08.
    185 vectors produced by pass  9 Test12= 6.34D-14 1.00D-09 XBig12= 7.59D-14 1.31D-08.
    181 vectors produced by pass 10 Test12= 6.34D-14 1.00D-09 XBig12= 1.05D-13 1.48D-08.
    149 vectors produced by pass 11 Test12= 6.34D-14 1.00D-09 XBig12= 7.26D-14 9.47D-09.
    142 vectors produced by pass 12 Test12= 6.34D-14 1.00D-09 XBig12= 4.69D-14 8.81D-09.
    139 vectors produced by pass 13 Test12= 6.34D-14 1.00D-09 XBig12= 6.02D-14 8.98D-09.
    113 vectors produced by pass 14 Test12= 6.34D-14 1.00D-09 XBig12= 4.35D-14 8.22D-09.
    107 vectors produced by pass 15 Test12= 6.34D-14 1.00D-09 XBig12= 3.41D-14 6.34D-09.
    107 vectors produced by pass 16 Test12= 6.34D-14 1.00D-09 XBig12= 4.25D-14 6.49D-09.
     77 vectors produced by pass 17 Test12= 6.34D-14 1.00D-09 XBig12= 3.26D-14 5.78D-09.
     51 vectors produced by pass 18 Test12= 6.34D-14 1.00D-09 XBig12= 2.00D-14 4.43D-09.
     50 vectors produced by pass 19 Test12= 6.34D-14 1.00D-09 XBig12= 2.11D-14 4.84D-09.
     43 vectors produced by pass 20 Test12= 6.34D-14 1.00D-09 XBig12= 1.20D-14 3.81D-09.
     42 vectors produced by pass 21 Test12= 6.34D-14 1.00D-09 XBig12= 1.27D-14 3.74D-09.
     42 vectors produced by pass 22 Test12= 6.34D-14 1.00D-09 XBig12= 1.11D-14 3.83D-09.
     42 vectors produced by pass 23 Test12= 6.34D-14 1.00D-09 XBig12= 1.56D-14 4.16D-09.
     42 vectors produced by pass 24 Test12= 6.34D-14 1.00D-09 XBig12= 1.23D-14 3.57D-09.
     41 vectors produced by pass 25 Test12= 6.34D-14 1.00D-09 XBig12= 8.44D-15 3.45D-09.
     41 vectors produced by pass 26 Test12= 6.34D-14 1.00D-09 XBig12= 1.53D-14 4.32D-09.
     39 vectors produced by pass 27 Test12= 6.34D-14 1.00D-09 XBig12= 8.49D-15 3.30D-09.
     39 vectors produced by pass 28 Test12= 6.34D-14 1.00D-09 XBig12= 1.19D-14 3.72D-09.
     38 vectors produced by pass 29 Test12= 6.34D-14 1.00D-09 XBig12= 9.24D-15 3.02D-09.
     36 vectors produced by pass 30 Test12= 6.34D-14 1.00D-09 XBig12= 7.85D-15 2.74D-09.
     22 vectors produced by pass 31 Test12= 6.34D-14 1.00D-09 XBig12= 6.07D-15 2.91D-09.
     22 vectors produced by pass 32 Test12= 6.34D-14 1.00D-09 XBig12= 1.12D-14 3.12D-09.
     22 vectors produced by pass 33 Test12= 6.34D-14 1.00D-09 XBig12= 9.11D-15 2.99D-09.
     20 vectors produced by pass 34 Test12= 6.34D-14 1.00D-09 XBig12= 6.00D-15 2.47D-09.
     20 vectors produced by pass 35 Test12= 6.34D-14 1.00D-09 XBig12= 1.22D-14 3.69D-09.
     19 vectors produced by pass 36 Test12= 6.34D-14 1.00D-09 XBig12= 5.62D-15 2.15D-09.
     10 vectors produced by pass 37 Test12= 6.34D-14 1.00D-09 XBig12= 3.98D-15 2.12D-09.
     10 vectors produced by pass 38 Test12= 6.34D-14 1.00D-09 XBig12= 9.89D-15 2.87D-09.
     10 vectors produced by pass 39 Test12= 6.34D-14 1.00D-09 XBig12= 7.65D-15 2.92D-09.
     10 vectors produced by pass 40 Test12= 6.34D-14 1.00D-09 XBig12= 1.27D-14 3.40D-09.
     10 vectors produced by pass 41 Test12= 6.34D-14 1.00D-09 XBig12= 8.55D-15 3.06D-09.
     10 vectors produced by pass 42 Test12= 6.34D-14 1.00D-09 XBig12= 1.01D-14 3.17D-09.
     10 vectors produced by pass 43 Test12= 6.34D-14 1.00D-09 XBig12= 5.90D-15 2.63D-09.
     10 vectors produced by pass 44 Test12= 6.34D-14 1.00D-09 XBig12= 4.55D-15 1.97D-09.
     10 vectors produced by pass 45 Test12= 6.34D-14 1.00D-09 XBig12= 4.90D-15 2.14D-09.
     10 vectors produced by pass 46 Test12= 6.34D-14 1.00D-09 XBig12= 6.51D-15 2.52D-09.
     10 vectors produced by pass 47 Test12= 6.34D-14 1.00D-09 XBig12= 6.01D-15 2.51D-09.
     10 vectors produced by pass 48 Test12= 6.34D-14 1.00D-09 XBig12= 6.75D-15 2.69D-09.
     10 vectors produced by pass 49 Test12= 6.34D-14 1.00D-09 XBig12= 7.51D-15 3.11D-09.
     10 vectors produced by pass 50 Test12= 6.34D-14 1.00D-09 XBig12= 5.26D-15 2.51D-09.
     10 vectors produced by pass 51 Test12= 6.34D-14 1.00D-09 XBig12= 8.72D-15 2.79D-09.
      9 vectors produced by pass 52 Test12= 6.34D-14 1.00D-09 XBig12= 3.02D-15 1.56D-09.
      9 vectors produced by pass 53 Test12= 6.34D-14 1.00D-09 XBig12= 3.89D-15 1.93D-09.
      9 vectors produced by pass 54 Test12= 6.34D-14 1.00D-09 XBig12= 5.56D-15 2.29D-09.
      7 vectors produced by pass 55 Test12= 6.34D-14 1.00D-09 XBig12= 2.25D-15 1.64D-09.
      7 vectors produced by pass 56 Test12= 6.34D-14 1.00D-09 XBig12= 3.45D-15 1.89D-09.
      7 vectors produced by pass 57 Test12= 6.34D-14 1.00D-09 XBig12= 5.53D-15 2.14D-09.
      7 vectors produced by pass 58 Test12= 6.34D-14 1.00D-09 XBig12= 3.93D-15 2.07D-09.
      7 vectors produced by pass 59 Test12= 6.34D-14 1.00D-09 XBig12= 6.97D-15 2.51D-09.
      7 vectors produced by pass 60 Test12= 6.34D-14 1.00D-09 XBig12= 4.64D-15 2.32D-09.
      7 vectors produced by pass 61 Test12= 6.34D-14 1.00D-09 XBig12= 3.79D-15 2.21D-09.
      7 vectors produced by pass 62 Test12= 6.34D-14 1.00D-09 XBig12= 6.63D-15 2.69D-09.
      7 vectors produced by pass 63 Test12= 6.34D-14 1.00D-09 XBig12= 5.07D-15 2.50D-09.
      7 vectors produced by pass 64 Test12= 6.34D-14 1.00D-09 XBig12= 3.91D-15 1.94D-09.
      7 vectors produced by pass 65 Test12= 6.34D-14 1.00D-09 XBig12= 2.82D-15 1.62D-09.
      7 vectors produced by pass 66 Test12= 6.34D-14 1.00D-09 XBig12= 7.85D-15 2.65D-09.
      7 vectors produced by pass 67 Test12= 6.34D-14 1.00D-09 XBig12= 4.20D-15 2.01D-09.
      7 vectors produced by pass 68 Test12= 6.34D-14 1.00D-09 XBig12= 3.47D-15 1.93D-09.
      7 vectors produced by pass 69 Test12= 6.34D-14 1.00D-09 XBig12= 4.69D-15 2.58D-09.
      7 vectors produced by pass 70 Test12= 6.34D-14 1.00D-09 XBig12= 5.57D-15 2.40D-09.
      7 vectors produced by pass 71 Test12= 6.34D-14 1.00D-09 XBig12= 3.02D-15 1.79D-09.
      6 vectors produced by pass 72 Test12= 6.34D-14 1.00D-09 XBig12= 1.53D-15 1.25D-09.
      6 vectors produced by pass 73 Test12= 6.34D-14 1.00D-09 XBig12= 4.58D-15 2.29D-09.
      6 vectors produced by pass 74 Test12= 6.34D-14 1.00D-09 XBig12= 3.91D-15 1.94D-09.
      6 vectors produced by pass 75 Test12= 6.34D-14 1.00D-09 XBig12= 2.38D-15 1.71D-09.
      6 vectors produced by pass 76 Test12= 6.34D-14 1.00D-09 XBig12= 5.16D-15 2.35D-09.
      6 vectors produced by pass 77 Test12= 6.34D-14 1.00D-09 XBig12= 2.93D-15 1.73D-09.
      6 vectors produced by pass 78 Test12= 6.34D-14 1.00D-09 XBig12= 3.96D-15 2.24D-09.
      6 vectors produced by pass 79 Test12= 6.34D-14 1.00D-09 XBig12= 7.20D-15 2.40D-09.
      6 vectors produced by pass 80 Test12= 6.34D-14 1.00D-09 XBig12= 3.76D-15 2.15D-09.
      6 vectors produced by pass 81 Test12= 6.34D-14 1.00D-09 XBig12= 5.62D-15 2.47D-09.
      6 vectors produced by pass 82 Test12= 6.34D-14 1.00D-09 XBig12= 2.55D-15 1.95D-09.
      6 vectors produced by pass 83 Test12= 6.34D-14 1.00D-09 XBig12= 5.80D-15 2.44D-09.
      6 vectors produced by pass 84 Test12= 6.34D-14 1.00D-09 XBig12= 3.47D-15 1.89D-09.
      6 vectors produced by pass 85 Test12= 6.34D-14 1.00D-09 XBig12= 3.48D-15 1.77D-09.
      6 vectors produced by pass 86 Test12= 6.34D-14 1.00D-09 XBig12= 4.59D-15 2.19D-09.
      5 vectors produced by pass 87 Test12= 6.34D-14 1.00D-09 XBig12= 1.69D-15 1.37D-09.
      5 vectors produced by pass 88 Test12= 6.34D-14 1.00D-09 XBig12= 4.77D-15 2.24D-09.
      5 vectors produced by pass 89 Test12= 6.34D-14 1.00D-09 XBig12= 4.52D-15 2.02D-09.
      5 vectors produced by pass 90 Test12= 6.34D-14 1.00D-09 XBig12= 5.22D-15 2.05D-09.
      5 vectors produced by pass 91 Test12= 6.34D-14 1.00D-09 XBig12= 4.25D-15 2.31D-09.
      5 vectors produced by pass 92 Test12= 6.34D-14 1.00D-09 XBig12= 3.49D-15 1.85D-09.
      5 vectors produced by pass 93 Test12= 6.34D-14 1.00D-09 XBig12= 3.42D-15 1.84D-09.
      5 vectors produced by pass 94 Test12= 6.34D-14 1.00D-09 XBig12= 2.63D-15 1.57D-09.
      5 vectors produced by pass 95 Test12= 6.34D-14 1.00D-09 XBig12= 5.02D-15 2.45D-09.
      5 vectors produced by pass 96 Test12= 6.34D-14 1.00D-09 XBig12= 4.40D-15 2.07D-09.
      5 vectors produced by pass 97 Test12= 6.34D-14 1.00D-09 XBig12= 5.27D-15 2.37D-09.
      5 vectors produced by pass 98 Test12= 6.34D-14 1.00D-09 XBig12= 3.36D-15 1.83D-09.
      5 vectors produced by pass 99 Test12= 6.34D-14 1.00D-09 XBig12= 3.14D-15 1.62D-09.
      5 vectors produced by pass100 Test12= 6.34D-14 1.00D-09 XBig12= 4.08D-15 2.62D-09.
      5 vectors produced by pass101 Test12= 6.34D-14 1.00D-09 XBig12= 3.14D-15 1.77D-09.
      5 vectors produced by pass102 Test12= 6.34D-14 1.00D-09 XBig12= 2.73D-15 1.58D-09.
      4 vectors produced by pass103 Test12= 6.34D-14 1.00D-09 XBig12= 2.24D-15 1.36D-09.
      4 vectors produced by pass104 Test12= 6.34D-14 1.00D-09 XBig12= 5.37D-15 2.29D-09.
      4 vectors produced by pass105 Test12= 6.34D-14 1.00D-09 XBig12= 4.23D-15 1.96D-09.
      4 vectors produced by pass106 Test12= 6.34D-14 1.00D-09 XBig12= 5.31D-15 2.56D-09.
      4 vectors produced by pass107 Test12= 6.34D-14 1.00D-09 XBig12= 5.48D-15 2.96D-09.
      4 vectors produced by pass108 Test12= 6.34D-14 1.00D-09 XBig12= 2.86D-15 1.68D-09.
      4 vectors produced by pass109 Test12= 6.34D-14 1.00D-09 XBig12= 4.92D-15 2.32D-09.
      4 vectors produced by pass110 Test12= 6.34D-14 1.00D-09 XBig12= 4.56D-15 2.06D-09.
      4 vectors produced by pass111 Test12= 6.34D-14 1.00D-09 XBig12= 3.91D-15 2.14D-09.
      4 vectors produced by pass112 Test12= 6.34D-14 1.00D-09 XBig12= 5.09D-15 2.36D-09.
      4 vectors produced by pass113 Test12= 6.34D-14 1.00D-09 XBig12= 6.73D-15 2.69D-09.
      4 vectors produced by pass114 Test12= 6.34D-14 1.00D-09 XBig12= 3.91D-15 2.00D-09.
      4 vectors produced by pass115 Test12= 6.34D-14 1.00D-09 XBig12= 4.12D-15 2.11D-09.
      4 vectors produced by pass116 Test12= 6.34D-14 1.00D-09 XBig12= 4.12D-15 1.94D-09.
      4 vectors produced by pass117 Test12= 6.34D-14 1.00D-09 XBig12= 4.69D-15 1.98D-09.
      4 vectors produced by pass118 Test12= 6.34D-14 1.00D-09 XBig12= 2.30D-15 1.34D-09.
      4 vectors produced by pass119 Test12= 6.34D-14 1.00D-09 XBig12= 2.49D-15 1.54D-09.
      4 vectors produced by pass120 Test12= 6.34D-14 1.00D-09 XBig12= 7.90D-15 2.86D-09.
      4 vectors produced by pass121 Test12= 6.34D-14 1.00D-09 XBig12= 3.52D-15 1.93D-09.
      4 vectors produced by pass122 Test12= 6.34D-14 1.00D-09 XBig12= 5.16D-15 2.55D-09.
      4 vectors produced by pass123 Test12= 6.34D-14 1.00D-09 XBig12= 2.51D-15 1.45D-09.
      4 vectors produced by pass124 Test12= 6.34D-14 1.00D-09 XBig12= 3.64D-15 1.84D-09.
      4 vectors produced by pass125 Test12= 6.34D-14 1.00D-09 XBig12= 4.36D-15 2.31D-09.
      3 vectors produced by pass126 Test12= 6.34D-14 1.00D-09 XBig12= 3.07D-15 1.61D-09.
      3 vectors produced by pass127 Test12= 6.34D-14 1.00D-09 XBig12= 5.23D-15 2.29D-09.
      3 vectors produced by pass128 Test12= 6.34D-14 1.00D-09 XBig12= 2.62D-15 1.81D-09.
      3 vectors produced by pass129 Test12= 6.34D-14 1.00D-09 XBig12= 4.67D-15 1.96D-09.
      3 vectors produced by pass130 Test12= 6.34D-14 1.00D-09 XBig12= 3.31D-15 1.98D-09.
      3 vectors produced by pass131 Test12= 6.34D-14 1.00D-09 XBig12= 3.71D-15 1.84D-09.
      3 vectors produced by pass132 Test12= 6.34D-14 1.00D-09 XBig12= 4.95D-15 2.41D-09.
      3 vectors produced by pass133 Test12= 6.34D-14 1.00D-09 XBig12= 3.67D-15 2.12D-09.
      3 vectors produced by pass134 Test12= 6.34D-14 1.00D-09 XBig12= 3.48D-15 1.82D-09.
      3 vectors produced by pass135 Test12= 6.34D-14 1.00D-09 XBig12= 3.47D-15 2.04D-09.
      3 vectors produced by pass136 Test12= 6.34D-14 1.00D-09 XBig12= 2.16D-15 1.43D-09.
      3 vectors produced by pass137 Test12= 6.34D-14 1.00D-09 XBig12= 2.87D-15 1.76D-09.
      3 vectors produced by pass138 Test12= 6.34D-14 1.00D-09 XBig12= 2.05D-15 1.48D-09.
      3 vectors produced by pass139 Test12= 6.34D-14 1.00D-09 XBig12= 4.18D-15 2.01D-09.
      3 vectors produced by pass140 Test12= 6.34D-14 1.00D-09 XBig12= 2.93D-15 1.68D-09.
      3 vectors produced by pass141 Test12= 6.34D-14 1.00D-09 XBig12= 3.29D-15 1.84D-09.
      3 vectors produced by pass142 Test12= 6.34D-14 1.00D-09 XBig12= 4.85D-15 1.98D-09.
      3 vectors produced by pass143 Test12= 6.34D-14 1.00D-09 XBig12= 4.34D-15 2.04D-09.
      3 vectors produced by pass144 Test12= 6.34D-14 1.00D-09 XBig12= 3.53D-15 2.10D-09.
      3 vectors produced by pass145 Test12= 6.34D-14 1.00D-09 XBig12= 2.31D-15 1.80D-09.
      2 vectors produced by pass146 Test12= 6.34D-14 1.00D-09 XBig12= 1.21D-15 1.05D-09.
 InvSVY:  IOpt=1 It=  1 EMax= 3.55D-14
 Solved reduced A of dimension  4245 with   198 vectors.
 Isotropic polarizability for W=    0.000000      344.10 Bohr**3.
 End of Minotr F.D. properties file   721 does not exist.
 End of Minotr F.D. properties file   722 does not exist.
 End of Minotr F.D. properties file   788 does not exist.

 **********************************************************************

            Population analysis using the SCF density.

 **********************************************************************

 Orbital symmetries:
       Occupied  (A) (A) (A) (A) (A) (A) (A) (A) (A) (A) (A) (A)
                 (A) (A) (A) (A) (A) (A) (A) (A) (A) (A) (A) (A)
                 (A) (A) (A) (A) (A) (A) (A) (A) (A) (A) (A) (A)
                 (A) (A) (A) (A) (A) (A) (A) (A) (A) (A) (A) (A)
                 (A) (A) (A) (A) (A) (A) (A) (A) (A) (A) (A) (A)
                 (A) (A) (A) (A) (A) (A) (A) (A) (A) (A) (A) (A)
                 (A) (A) (A) (A) (A) (A) (A) (A) (A) (A) (A) (A)
                 (A) (A) (A) (A) (A) (A) (A) (A) (A) (A) (A) (A)
                 (A) (A) (A) (A) (A) (A) (A) (A) (A) (A) (A) (A)
                 (A) (A) (A) (A) (A) (A) (A) (A) (A) (A) (A) (A)
                 (A) (A) (A) (A) (A)
       Virtual   (A) (A) (A) (A) (A) (A) (A) (A) (A) (A) (A) (A)
                 (A) (A) (A) (A) (A) (A) (A) (A) (A) (A) (A) (A)
                 (A) (A) (A) (A) (A) (A) (A) (A) (A) (A) (A) (A)
                 (A) (A) (A) (A) (A) (A) (A) (A) (A) (A) (A) (A)
                 (A) (A) (A) (A) (A) (A) (A) (A) (A) (A) (A) (A)
                 (A) (A) (A) (A) (A) (A) (A) (A) (A) (A) (A) (A)
                 (A) (A) (A) (A) (A) (A) (A) (A) (A) (A) (A) (A)
                 (A) (A) (A) (A) (A) (A) (A) (A) (A) (A) (A) (A)
                 (A) (A) (A) (A) (A) (A) (A) (A) (A) (A) (A) (A)
                 (A) (A) (A) (A) (A) (A) (A) (A) (A) (A) (A) (A)
                 (A) (A) (A) (A) (A) (A) (A) (A) (A) (A) (A) (A)
                 (A) (A) (A) (A) (A) (A) (A) (A) (A) (A) (A) (A)
                 (A) (A) (A) (A) (A) (A) (A) (A) (A) (A) (A) (A)
                 (A) (A) (A) (A) (A) (A) (A) (A) (A) (A) (A) (A)
                 (A) (A) (A) (A) (A) (A) (A) (A) (A) (A) (A) (A)
                 (A) (A) (A) (A) (A) (A) (A) (A) (A) (A) (A) (A)
                 (A) (A) (A) (A) (A) (A) (A) (A) (A) (A) (A) (A)
                 (A) (A) (A) (A) (A) (A) (A) (A) (A) (A) (A) (A)
                 (A) (A) (A) (A) (A) (A) (A) (A) (A) (A) (A) (A)
                 (A) (A) (A) (A) (A) (A) (A) (A) (A) (A) (A) (A)
                 (A) (A) (A) (A) (A) (A) (A) (A) (A) (A) (A) (A)
                 (A) (A) (A) (A) (A) (A) (A) (A) (A) (A) (A) (A)
                 (A) (A) (A) (A) (A) (A) (A) (A) (A) (A) (A) (A)
                 (A) (A) (A) (A) (A) (A) (A) (A) (A) (A) (A) (A)
                 (A) (A) (A) (A) (A) (A) (A) (A) (A) (A) (A) (A)
                 (A) (A) (A) (A) (A) (A) (A) (A) (A) (A) (A) (A)
                 (A) (A) (A) (A) (A) (A) (A) (A) (A) (A) (A) (A)
                 (A) (A) (A) (A) (A) (A) (A) (A) (A) (A) (A) (A)
                 (A) (A) (A) (A) (A) (A) (A) (A) (A) (A) (A) (A)
                 (A) (A) (A) (A) (A) (A) (A) (A) (A) (A) (A) (A)
                 (A) (A) (A) (A) (A) (A) (A) (A) (A) (A) (A) (A)
                 (A) (A) (A) (A) (A) (A) (A) (A) (A) (A) (A) (A)
                 (A) (A) (A) (A) (A) (A) (A) (A) (A) (A) (A) (A)
                 (A) (A) (A) (A) (A) (A) (A) (A) (A) (A) (A) (A)
                 (A) (A) (A) (A) (A) (A) (A) (A) (A) (A) (A) (A)
                 (A) (A) (A) (A) (A) (A) (A) (A) (A) (A) (A) (A)
                 (A) (A) (A) (A) (A) (A) (A) (A) (A) (A) (A) (A)
                 (A) (A) (A) (A) (A) (A) (A) (A) (A) (A) (A) (A)
                 (A) (A) (A) (A) (A) (A) (A) (A) (A) (A) (A) (A)
                 (A) (A) (A) (A) (A) (A) (A) (A) (A) (A) (A) (A)
                 (A) (A) (A) (A) (A) (A) (A) (A) (A) (A) (A) (A)
                 (A) (A) (A) (A) (A) (A) (A) (A) (A) (A) (A) (A)
                 (A) (A) (A)
 The electronic state is 1-A.
 Alpha  occ. eigenvalues -- -101.84428 -19.41855 -19.35086 -19.31767 -14.57855
 Alpha  occ. eigenvalues --  -14.55355 -10.50030 -10.48960 -10.45401 -10.43730
 Alpha  occ. eigenvalues --  -10.43672 -10.42395 -10.42366 -10.41738 -10.41545
 Alpha  occ. eigenvalues --  -10.41166 -10.40920 -10.40819 -10.40458 -10.37572
 Alpha  occ. eigenvalues --  -10.37208 -10.37139 -10.35931 -10.35909 -10.35626
 Alpha  occ. eigenvalues --  -10.34720 -10.34167 -10.33954 -10.33895 -10.33684
 Alpha  occ. eigenvalues --   -9.71603  -7.42867  -7.41853  -7.41775  -3.46390
 Alpha  occ. eigenvalues --   -2.20752  -2.20501  -2.17537  -1.27112  -1.17029
 Alpha  occ. eigenvalues --   -1.15610  -1.13303  -1.07397  -1.01317  -0.97516
 Alpha  occ. eigenvalues --   -0.96849  -0.95928  -0.95718  -0.92362  -0.89640
 Alpha  occ. eigenvalues --   -0.88117  -0.87290  -0.84776  -0.82406  -0.81400
 Alpha  occ. eigenvalues --   -0.80384  -0.79758  -0.79723  -0.79317  -0.77444
 Alpha  occ. eigenvalues --   -0.76689  -0.72604  -0.72005  -0.70479  -0.68939
 Alpha  occ. eigenvalues --   -0.67388  -0.66493  -0.65725  -0.65405  -0.64652
 Alpha  occ. eigenvalues --   -0.63771  -0.61662  -0.60952  -0.60553  -0.59731
 Alpha  occ. eigenvalues --   -0.59567  -0.59131  -0.58652  -0.57701  -0.57559
 Alpha  occ. eigenvalues --   -0.57119  -0.56861  -0.56514  -0.55760  -0.54643
 Alpha  occ. eigenvalues --   -0.54246  -0.53920  -0.53658  -0.53418  -0.52929
 Alpha  occ. eigenvalues --   -0.52648  -0.52256  -0.51727  -0.51515  -0.51306
 Alpha  occ. eigenvalues --   -0.51114  -0.50688  -0.50068  -0.49195  -0.49000
 Alpha  occ. eigenvalues --   -0.48745  -0.48630  -0.48249  -0.47836  -0.47504
 Alpha  occ. eigenvalues --   -0.47314  -0.47016  -0.46375  -0.46185  -0.45216
 Alpha  occ. eigenvalues --   -0.44916  -0.44722  -0.44437  -0.44268  -0.43264
 Alpha  occ. eigenvalues --   -0.42707  -0.41771  -0.41423  -0.40965  -0.40351
 Alpha  occ. eigenvalues --   -0.39532  -0.38277  -0.37235  -0.35621  -0.34915
 Alpha virt. eigenvalues --   -0.19820  -0.18165  -0.17136  -0.16100  -0.13600
 Alpha virt. eigenvalues --   -0.12262  -0.11742  -0.11258  -0.10511  -0.10177
 Alpha virt. eigenvalues --   -0.10029  -0.09917  -0.09655  -0.09258  -0.09094
 Alpha virt. eigenvalues --   -0.08678  -0.08459  -0.08232  -0.08140  -0.07814
 Alpha virt. eigenvalues --   -0.07578  -0.07076  -0.06585  -0.06501  -0.05912
 Alpha virt. eigenvalues --   -0.05718  -0.05555  -0.05521  -0.05285  -0.04828
 Alpha virt. eigenvalues --   -0.04704  -0.04491  -0.03956  -0.03654  -0.03543
 Alpha virt. eigenvalues --   -0.03093  -0.03059  -0.02704  -0.02507  -0.02389
 Alpha virt. eigenvalues --   -0.02178  -0.01945  -0.01454  -0.01263  -0.01148
 Alpha virt. eigenvalues --   -0.00829  -0.00698  -0.00475  -0.00327  -0.00063
 Alpha virt. eigenvalues --    0.00346   0.00535   0.01003   0.01179   0.01433
 Alpha virt. eigenvalues --    0.01646   0.01889   0.01999   0.02190   0.02584
 Alpha virt. eigenvalues --    0.02642   0.02845   0.03095   0.03429   0.03823
 Alpha virt. eigenvalues --    0.03934   0.04290   0.04359   0.04465   0.04893
 Alpha virt. eigenvalues --    0.05096   0.05242   0.05530   0.05991   0.06079
 Alpha virt. eigenvalues --    0.06314   0.06521   0.06609   0.06919   0.06983
 Alpha virt. eigenvalues --    0.07054   0.07574   0.07666   0.07895   0.08213
 Alpha virt. eigenvalues --    0.08244   0.08334   0.08959   0.09081   0.09359
 Alpha virt. eigenvalues --    0.09482   0.09678   0.09895   0.10022   0.10211
 Alpha virt. eigenvalues --    0.10387   0.10574   0.10825   0.11098   0.11190
 Alpha virt. eigenvalues --    0.11508   0.11529   0.11800   0.11966   0.12074
 Alpha virt. eigenvalues --    0.12428   0.12540   0.12729   0.12868   0.13118
 Alpha virt. eigenvalues --    0.13204   0.13255   0.13699   0.13781   0.14120
 Alpha virt. eigenvalues --    0.14289   0.14444   0.14614   0.14974   0.15042
 Alpha virt. eigenvalues --    0.15274   0.15544   0.15605   0.15858   0.16009
 Alpha virt. eigenvalues --    0.16039   0.16277   0.16628   0.17104   0.17260
 Alpha virt. eigenvalues --    0.17648   0.17683   0.17819   0.18227   0.18460
 Alpha virt. eigenvalues --    0.18812   0.19156   0.19360   0.19599   0.19701
 Alpha virt. eigenvalues --    0.19974   0.20470   0.20874   0.21030   0.21297
 Alpha virt. eigenvalues --    0.21527   0.21989   0.22108   0.22259   0.22461
 Alpha virt. eigenvalues --    0.23100   0.23372   0.23610   0.24004   0.24176
 Alpha virt. eigenvalues --    0.24323   0.24687   0.25089   0.25362   0.25736
 Alpha virt. eigenvalues --    0.26089   0.26466   0.26631   0.26869   0.27121
 Alpha virt. eigenvalues --    0.27252   0.27702   0.28425   0.28706   0.29069
 Alpha virt. eigenvalues --    0.29659   0.30146   0.30275   0.30894   0.31082
 Alpha virt. eigenvalues --    0.31701   0.31915   0.32220   0.33081   0.33340
 Alpha virt. eigenvalues --    0.34269   0.34426   0.34991   0.35591   0.36029
 Alpha virt. eigenvalues --    0.36457   0.36880   0.38049   0.38613   0.39231
 Alpha virt. eigenvalues --    0.40123   0.41806   0.43198   0.44177   0.45318
 Alpha virt. eigenvalues --    0.46565   0.49054   0.49767   0.52006   0.54162
 Alpha virt. eigenvalues --    0.54662   0.55108   0.55902   0.56719   0.56954
 Alpha virt. eigenvalues --    0.57493   0.57804   0.58746   0.59029   0.59794
 Alpha virt. eigenvalues --    0.60163   0.60970   0.61880   0.62249   0.62578
 Alpha virt. eigenvalues --    0.62844   0.62993   0.63371   0.63451   0.64163
 Alpha virt. eigenvalues --    0.64555   0.65059   0.65166   0.65878   0.66246
 Alpha virt. eigenvalues --    0.66588   0.66731   0.67117   0.67396   0.67964
 Alpha virt. eigenvalues --    0.68164   0.68557   0.69739   0.69949   0.69992
 Alpha virt. eigenvalues --    0.70709   0.71355   0.71580   0.72294   0.73040
 Alpha virt. eigenvalues --    0.73307   0.73613   0.73731   0.74690   0.75193
 Alpha virt. eigenvalues --    0.75316   0.76670   0.76883   0.77480   0.78365
 Alpha virt. eigenvalues --    0.78744   0.78878   0.79331   0.79654   0.79918
 Alpha virt. eigenvalues --    0.81047   0.81443   0.81933   0.82180   0.82618
 Alpha virt. eigenvalues --    0.82777   0.83109   0.84084   0.84325   0.84984
 Alpha virt. eigenvalues --    0.85747   0.85973   0.86702   0.87365   0.87478
 Alpha virt. eigenvalues --    0.88419   0.88655   0.89265   0.89486   0.90290
 Alpha virt. eigenvalues --    0.91229   0.91374   0.91705   0.92058   0.92933
 Alpha virt. eigenvalues --    0.93488   0.93944   0.94526   0.94657   0.95557
 Alpha virt. eigenvalues --    0.95779   0.96009   0.96827   0.97456   0.97511
 Alpha virt. eigenvalues --    0.98111   0.99207   0.99702   1.00085   1.00349
 Alpha virt. eigenvalues --    1.01081   1.01271   1.02023   1.02560   1.02876
 Alpha virt. eigenvalues --    1.03405   1.04148   1.04839   1.05001   1.05423
 Alpha virt. eigenvalues --    1.06296   1.06837   1.07465   1.07730   1.08400
 Alpha virt. eigenvalues --    1.09690   1.09861   1.10437   1.10577   1.11651
 Alpha virt. eigenvalues --    1.11953   1.12223   1.13149   1.14113   1.15594
 Alpha virt. eigenvalues --    1.16210   1.16984   1.17813   1.19141   1.19523
 Alpha virt. eigenvalues --    1.20801   1.22082   1.22506   1.22791   1.23370
 Alpha virt. eigenvalues --    1.23840   1.24478   1.26076   1.26914   1.27346
 Alpha virt. eigenvalues --    1.28141   1.28803   1.29725   1.30931   1.31469
 Alpha virt. eigenvalues --    1.31820   1.32322   1.33084   1.33377   1.33876
 Alpha virt. eigenvalues --    1.35191   1.36988   1.37389   1.38125   1.39573
 Alpha virt. eigenvalues --    1.40460   1.41515   1.42071   1.43043   1.43759
 Alpha virt. eigenvalues --    1.44478   1.45057   1.45836   1.47251   1.48142
 Alpha virt. eigenvalues --    1.49915   1.50863   1.52558   1.53281   1.55305
 Alpha virt. eigenvalues --    1.55627   1.57887   1.58494   1.59825   1.60469
 Alpha virt. eigenvalues --    1.61396   1.61837   1.61973   1.63394   1.64105
 Alpha virt. eigenvalues --    1.65380   1.65638   1.67148   1.68133   1.69615
 Alpha virt. eigenvalues --    1.70078   1.70602   1.71932   1.72289   1.73341
 Alpha virt. eigenvalues --    1.73661   1.74478   1.75465   1.75666   1.76381
 Alpha virt. eigenvalues --    1.77116   1.77926   1.78161   1.79050   1.79583
 Alpha virt. eigenvalues --    1.80408   1.81362   1.82130   1.82922   1.83459
 Alpha virt. eigenvalues --    1.83671   1.84830   1.85328   1.86111   1.86773
 Alpha virt. eigenvalues --    1.87381   1.88116   1.89354   1.91102   1.91706
 Alpha virt. eigenvalues --    1.92079   1.93080   1.93900   1.94373   1.95191
 Alpha virt. eigenvalues --    1.95938   1.96833   1.97342   1.98022   1.98827
 Alpha virt. eigenvalues --    1.99721   1.99830   2.00925   2.01520   2.02336
 Alpha virt. eigenvalues --    2.03224   2.04470   2.05486   2.06004   2.06677
 Alpha virt. eigenvalues --    2.07496   2.08489   2.09381   2.09912   2.10322
 Alpha virt. eigenvalues --    2.11504   2.11820   2.12506   2.12593   2.13225
 Alpha virt. eigenvalues --    2.13729   2.14096   2.14689   2.15458   2.15971
 Alpha virt. eigenvalues --    2.16992   2.17741   2.18474   2.18636   2.19787
 Alpha virt. eigenvalues --    2.20153   2.21742   2.22941   2.25267   2.25759
 Alpha virt. eigenvalues --    2.27476   2.27719   2.29080   2.29840   2.30922
 Alpha virt. eigenvalues --    2.32810   2.35081   2.36958   2.37668   2.38201
 Alpha virt. eigenvalues --    2.39000   2.39377   2.41448   2.42841   2.44002
 Alpha virt. eigenvalues --    2.44264   2.46063   2.48071   2.48758   2.49529
 Alpha virt. eigenvalues --    2.51202   2.51924   2.54100   2.54950   2.56647
 Alpha virt. eigenvalues --    2.57285   2.57923   2.61685   2.63448   2.65163
 Alpha virt. eigenvalues --    2.66959   2.68874   2.69298   2.70269   2.70325
 Alpha virt. eigenvalues --    2.72002   2.73959   2.74932   2.76139   2.79011
 Alpha virt. eigenvalues --    2.80473   2.81835   2.86285   2.89531   2.93612
 Alpha virt. eigenvalues --    2.97640   2.99772   3.05200   3.14063   3.15598
 Alpha virt. eigenvalues --    3.26925  21.56705
          Condensed to atoms (all electrons):
 Mulliken charges:
               1
     1  C    0.005138
     2  C   -0.364672
     3  C   -0.226374
     4  C   -0.140164
     5  H    0.254284
     6  C   -0.423701
     7  N    0.191117
     8  H    0.249099
     9  H    0.259347
    10  Cl   0.484494
    11  C   -0.194839
    12  O   -0.224545
    13  N    0.018085
    14  C   -0.258187
    15  H    0.237376
    16  H    0.235470
    17  C    0.189151
    18  C   -0.921368
    19  H    0.195330
    20  Pd  -0.671102
    21  C   -0.396221
    22  C   -0.425687
    23  C    0.608445
    24  C   -0.967948
    25  C   -0.025603
    26  H    0.212835
    27  H    0.233887
    28  C    0.155826
    29  H    0.200074
    30  H    0.183368
    31  C   -0.717876
    32  C    0.098216
    33  H    0.235634
    34  C   -0.814994
    35  H    0.242665
    36  H    0.250075
    37  H    0.257837
    38  C   -0.121099
    39  H    0.208163
    40  H    0.282420
    41  H    0.245134
    42  O   -0.599032
    43  H    0.522814
    44  H    0.254694
    45  C   -0.114665
    46  O   -0.321940
    47  H    0.243395
    48  H    0.225488
    49  H    0.239582
    50  C   -0.185263
    51  H    0.260960
    52  H    0.268631
    53  H    0.217378
    54  C   -0.209710
    55  H    0.239570
    56  H    0.228760
    57  H    0.224392
    58  C   -0.277009
    59  H    0.228000
    60  H    0.242694
    61  H    0.216801
    62  C   -0.413734
    63  H    0.234463
    64  H    0.205069
    65  H    0.229567
 Sum of Mulliken charges =   1.00000
 Mulliken charges with hydrogens summed into heavy atoms:
               1
     1  C    0.005138
     2  C   -0.105325
     3  C    0.022725
     4  C    0.114120
     6  C   -0.423701
     7  N    0.191117
    10  Cl   0.484494
    11  C   -0.194839
    12  O   -0.224545
    13  N    0.018085
    14  C    0.214659
    17  C    0.384481
    18  C   -0.921368
    20  Pd  -0.671102
    21  C    0.101868
    22  C    0.012637
    23  C    1.081915
    24  C   -0.967948
    25  C   -0.025603
    28  C    0.539268
    31  C   -0.717876
    32  C    0.333851
    34  C   -0.064416
    38  C    0.614618
    42  O   -0.076218
    45  C   -0.114665
    46  O   -0.321940
    50  C    0.561706
    54  C    0.483012
    58  C    0.410486
    62  C    0.255366
 APT charges:
               1
     1  C    0.126933
     2  C   -0.138081
     3  C    0.176068
     4  C   -0.145141
     5  H    0.089302
     6  C    0.468473
     7  N   -0.453443
     8  H    0.072109
     9  H    0.097386
    10  Cl  -0.239807
    11  C    0.942963
    12  O   -0.813956
    13  N   -0.695586
    14  C    0.333534
    15  H    0.034482
    16  H   -0.005959
    17  C    0.239108
    18  C    0.095339
    19  H   -0.014697
    20  Pd   0.148970
    21  C   -0.058144
    22  C    0.100918
    23  C   -0.049484
    24  C    0.344194
    25  C   -0.446124
    26  H   -0.023314
    27  H    0.006266
    28  C    0.529441
    29  H   -0.052461
    30  H   -0.071628
    31  C    0.316712
    32  C    0.179237
    33  H    0.016290
    34  C   -0.043688
    35  H    0.024536
    36  H    0.035587
    37  H    0.029807
    38  C   -0.112737
    39  H    0.017896
    40  H    0.033606
    41  H    0.039664
    42  O   -0.704891
    43  H    0.290724
    44  H    0.019374
    45  C    1.028700
    46  O   -0.802559
    47  H    0.014122
    48  H   -0.025995
    49  H   -0.030884
    50  C   -0.013292
    51  H    0.032939
    52  H    0.041586
    53  H    0.001965
    54  C   -0.007100
    55  H    0.009891
    56  H   -0.014836
    57  H    0.005027
    58  C    0.012395
    59  H    0.000679
    60  H    0.004936
    61  H    0.000937
    62  C    0.004129
    63  H   -0.004803
    64  H    0.008847
    65  H   -0.006464
 Sum of APT charges =   1.00000
 APT charges with hydrogens summed into heavy atoms:
               1
     1  C    0.126933
     2  C   -0.040695
     3  C    0.248176
     4  C   -0.055838
     6  C    0.468473
     7  N   -0.453443
    10  Cl  -0.239807
    11  C    0.942963
    12  O   -0.813956
    13  N   -0.695586
    14  C    0.362057
    17  C    0.224411
    18  C    0.095339
    20  Pd   0.148970
    21  C   -0.024647
    22  C    0.051610
    23  C   -0.074103
    24  C    0.344194
    25  C   -0.446124
    28  C    0.405352
    31  C    0.316712
    32  C    0.195527
    34  C    0.046243
    38  C   -0.021571
    42  O   -0.414167
    45  C    1.028700
    46  O   -0.802559
    50  C    0.063199
    54  C   -0.007018
    58  C    0.018947
    62  C    0.001709
 Electronic spatial extent (au):  <R**2>=          13063.5031
 Charge=              1.0000 electrons
 Dipole moment (field-independent basis, Debye):
    X=             -5.1367    Y=              1.7921    Z=             -5.9235  Tot=              8.0427
 Quadrupole moment (field-independent basis, Debye-Ang):
   XX=           -168.3928   YY=           -158.5995   ZZ=           -189.5418
   XY=              0.7838   XZ=            -11.4068   YZ=             -6.2502
 Traceless Quadrupole moment (field-independent basis, Debye-Ang):
   XX=              3.7852   YY=             13.5785   ZZ=            -17.3637
   XY=              0.7838   XZ=            -11.4068   YZ=             -6.2502
 Octapole moment (field-independent basis, Debye-Ang**2):
  XXX=           -144.9043  YYY=             94.3127  ZZZ=            -53.5876  XYY=             29.8173
  XXY=            -16.9762  XXZ=            -81.8332  XZZ=            -56.5849  YZZ=            -27.9711
  YYZ=            -52.9606  XYZ=             -8.6693
 Hexadecapole moment (field-independent basis, Debye-Ang**3):
 XXXX=          -8802.7454 YYYY=          -4782.1346 ZZZZ=          -2175.6517 XXXY=              0.6836
 XXXZ=           -355.5140 YYYX=             81.2097 YYYZ=           -215.6048 ZZZX=             44.0422
 ZZZY=            160.8673 XXYY=          -2365.2285 XXZZ=          -1936.6211 YYZZ=          -1173.6324
 XXYZ=             49.9642 YYXZ=             85.5928 ZZXY=             53.5185
 N-N= 3.978647166424D+03 E-N=-1.224374072736D+04  KE= 1.766296025989D+03
  Exact polarizability: 399.651  19.817 351.357  28.244 -16.265 281.296
 Approx polarizability: 562.232  31.901 518.576  77.627 -22.147 457.476
   1 Symmetry operations used in ECPInt.
 ECPInt:  NShTT=   25878 NPrTT=  135610 LenC2=   22999 LenP2D=   71644.
 LDataN:  DoStor=T MaxTD1= 7 Len=  274
 Calling FoFJK, ICntrl=    100127 FMM=F ISym2X=0 I1Cent= 0 IOpClX= 0 NMat=1 NMatS=1 NMatT=0.
 Defaulting to unpruned grid for atomic number  46.
 Defaulting to unpruned grid for atomic number  46.
 Defaulting to unpruned grid for atomic number  46.
 Defaulting to unpruned grid for atomic number  46.
 Defaulting to unpruned grid for atomic number  46.
 Defaulting to unpruned grid for atomic number  46.
 Defaulting to unpruned grid for atomic number  46.
 Defaulting to unpruned grid for atomic number  46.
 Defaulting to unpruned grid for atomic number  46.
 Defaulting to unpruned grid for atomic number  46.
 Defaulting to unpruned grid for atomic number  46.
 Defaulting to unpruned grid for atomic number  46.
 Defaulting to unpruned grid for atomic number  46.
 Defaulting to unpruned grid for atomic number  46.
 Defaulting to unpruned grid for atomic number  46.
 Defaulting to unpruned grid for atomic number  46.
 Defaulting to unpruned grid for atomic number  46.
 Defaulting to unpruned grid for atomic number  46.
 Defaulting to unpruned grid for atomic number  46.
 Defaulting to unpruned grid for atomic number  46.
 Defaulting to unpruned grid for atomic number  46.
 Defaulting to unpruned grid for atomic number  46.
 Defaulting to unpruned grid for atomic number  46.
 Defaulting to unpruned grid for atomic number  46.
 Defaulting to unpruned grid for atomic number  46.
 Defaulting to unpruned grid for atomic number  46.
 Defaulting to unpruned grid for atomic number  46.
 Defaulting to unpruned grid for atomic number  46.
 Full mass-weighted force constant matrix:
 Low frequencies --- -211.7456   -4.4463   -0.0031   -0.0026   -0.0024    8.9391
 Low frequencies ---   11.5896   22.2922   36.6610
 ******    1 imaginary frequencies (negative Signs) ****** 
 Diagonal vibrational polarizability:
       95.1768216      59.3506552      51.3562735
 Harmonic frequencies (cm**-1), IR intensities (KM/Mole), Raman scattering
 activities (A**4/AMU), depolarization ratios for plane and unpolarized
 incident light, reduced masses (AMU), force constants (mDyne/A),
 and normal coordinates:
                           1         2         3         4         5
                           A         A         A         A         A
       Frequencies ---  -211.7364   21.4515   36.4340   43.8310   49.8904
    Reduced masses ---     7.8814    4.9732    5.4782    3.9816    4.9543
   Force constants ---     0.2082    0.0013    0.0043    0.0045    0.0073
    IR Intensities ---     2.3073    0.2412    1.0125    0.1007    0.2772
 Coord Atom Element:
   1     1     6          0.00157   0.02186  -0.03432  -0.00528   0.01830
   2     1     6         -0.02868   0.00568   0.05036   0.02301  -0.00304
   3     1     6         -0.00453   0.04170   0.03323   0.00798  -0.03246
   1     2     6         -0.00432   0.02196  -0.12710  -0.00755   0.01913
   2     2     6         -0.02279   0.01825   0.11789   0.01604   0.01982
   3     2     6          0.00598   0.06451   0.17086  -0.00536   0.01000
   1     3     6         -0.00835   0.01460  -0.17397   0.00468  -0.00514
   2     3     6         -0.01801   0.02288   0.16587   0.00575   0.03888
   3     3     6          0.00443   0.09285   0.22537  -0.04327   0.08845
   1     4     6         -0.00929   0.01041  -0.11439   0.01975  -0.03054
   2     4     6         -0.01997   0.00999   0.12587   0.00386   0.02868
   3     4     6          0.00267   0.09239   0.12747  -0.06424   0.11744
   1     5     1         -0.01455   0.00740  -0.14003   0.03225  -0.05188
   2     5     1         -0.01635   0.00872   0.14749  -0.00391   0.03891
   3     5     1          0.01393   0.11198   0.16451  -0.09395   0.18020
   1     6     6          0.00326   0.01290  -0.01470   0.01861  -0.02773
   2     6     6         -0.02451  -0.00401   0.05117   0.01361   0.00127
   3     6     6         -0.00244   0.06488  -0.01767  -0.04503   0.06385
   1     7     7          0.00849   0.01678   0.01695   0.00524  -0.00252
   2     7     7         -0.03776  -0.00501   0.02261   0.02090  -0.01219
   3     7     7         -0.01375   0.04405  -0.05550  -0.00923  -0.00579
   1     8     1         -0.01407   0.01238  -0.25919   0.00441  -0.00796
   2     8     1         -0.01478   0.03422   0.22938  -0.00157   0.06073
   3     8     1          0.01081   0.11454   0.35068  -0.05716   0.13016
   1     9     1         -0.01006   0.02580  -0.16767  -0.01708   0.03351
   2     9     1         -0.02341   0.02334   0.13309   0.01745   0.02501
   3     9     1          0.01493   0.06078   0.24131   0.01034  -0.01057
   1    10    17         -0.00232   0.01981   0.07227   0.04146  -0.05844
   2    10    17          0.01535  -0.01961  -0.00273   0.01760  -0.01433
   3    10    17          0.00734   0.05221  -0.13337  -0.06955   0.09407
   1    11     6         -0.00384   0.02165  -0.00400  -0.00935   0.02036
   2    11     6         -0.02280   0.00373   0.01393   0.02967  -0.00661
   3    11     6          0.00092   0.00570  -0.00063   0.02432  -0.06691
   1    12     8         -0.00044   0.04101  -0.01059  -0.01646   0.01008
   2    12     8         -0.00631   0.00150  -0.00511   0.04663   0.01511
   3    12     8          0.00014  -0.04517  -0.00239   0.05615  -0.02373
   1    13     7         -0.01339  -0.00151   0.01647  -0.00390   0.02261
   2    13     7         -0.02099   0.00511   0.00532   0.01591  -0.01908
   3    13     7          0.00201   0.01111  -0.01828  -0.00339  -0.09211
   1    14     6         -0.01125   0.03476   0.01614  -0.01922  -0.00006
   2    14     6          0.00375  -0.00001  -0.03050   0.04781   0.02700
   3    14     6          0.00116  -0.08653  -0.03128   0.04405   0.00477
   1    15     1         -0.00808   0.01942  -0.00192  -0.00848   0.01543
   2    15     1          0.01229  -0.00302  -0.06011   0.04508   0.04102
   3    15     1          0.00038  -0.12861  -0.04858   0.07973   0.03395
   1    16     1         -0.01600   0.07742   0.05052  -0.04702  -0.03470
   2    16     1          0.00324   0.00046  -0.02758   0.07899   0.02558
   3    16     1          0.00180  -0.09230  -0.03744   0.03172   0.00999
   1    17     6         -0.01638  -0.00996   0.02014  -0.00057   0.02255
   2    17     6         -0.00196   0.00268  -0.01345   0.00660   0.02031
   3    17     6         -0.00024  -0.05333  -0.02291  -0.00222  -0.01814
   1    18     6         -0.00874  -0.08083   0.00523   0.01918   0.11466
   2    18     6          0.00009   0.00412  -0.00119  -0.06218   0.07228
   3    18     6          0.00162  -0.07710  -0.02839   0.01209   0.00804
   1    19     1         -0.02898   0.00440   0.03350   0.00025  -0.02250
   2    19     1         -0.00093   0.00216  -0.01602   0.01965   0.01805
   3    19     1         -0.00049  -0.05419  -0.01306  -0.05417   0.00285
   1    20    46          0.07573  -0.00099   0.02232  -0.01425  -0.01082
   2    20    46         -0.02769  -0.00723   0.00507  -0.00024  -0.04992
   3    20    46         -0.01370   0.03935  -0.03996   0.01904  -0.03524
   1    21     6          0.04692  -0.02441   0.03751  -0.01070  -0.05668
   2    21     6         -0.00999   0.04564  -0.09902  -0.03619   0.12330
   3    21     6          0.00432  -0.16758   0.03842  -0.01221  -0.01233
   1    22     6          0.08845  -0.09428   0.07426  -0.01547  -0.09328
   2    22     6          0.05019   0.03389  -0.11573  -0.05430   0.03435
   3    22     6         -0.00494  -0.10944  -0.00475  -0.01717  -0.02615
   1    23     6         -0.01995  -0.08427   0.05979  -0.02402  -0.02478
   2    23     6          0.17752   0.01088  -0.09809  -0.04870  -0.05429
   3    23     6          0.04182  -0.05129   0.00220   0.01418  -0.01181
   1    24     6          0.00861  -0.00686   0.01887  -0.01482  -0.01490
   2    24     6          0.43969  -0.00023  -0.02835  -0.02202  -0.04071
   3    24     6          0.09703  -0.01719   0.00017   0.02710  -0.00455
   1    25     6          0.04222   0.05545  -0.00642  -0.00606  -0.01828
   2    25     6          0.12257   0.01207  -0.01095   0.01069   0.00477
   3    25     6          0.05257  -0.05204   0.01300   0.02179  -0.00485
   1    26     1          0.18046  -0.10009   0.08620  -0.00441  -0.16906
   2    26     1          0.09128   0.02309  -0.09734  -0.04392   0.01439
   3    26     1         -0.03466  -0.07920  -0.05128  -0.03904  -0.04470
   1    27     1          0.03841  -0.12712   0.08701  -0.02685  -0.04378
   2    27     1          0.21323   0.00333  -0.11544  -0.05175  -0.12972
   3    27     1          0.00236  -0.00837  -0.03862   0.01544  -0.03876
   1    28     6         -0.11263   0.03543  -0.00870   0.10574   0.02398
   2    28     6         -0.03655  -0.03312  -0.04866   0.05003  -0.07112
   3    28     6         -0.03280   0.03669   0.02099  -0.07862  -0.03890
   1    29     1         -0.08250   0.04985  -0.00162   0.16189   0.04032
   2    29     1         -0.00974  -0.04297  -0.07522   0.06075  -0.08114
   3    29     1          0.02187   0.04028   0.00087  -0.01528  -0.03345
   1    30     1         -0.11250   0.03375  -0.00424   0.10412   0.02360
   2    30     1         -0.03606  -0.03245  -0.03616   0.05919  -0.06607
   3    30     1         -0.05088   0.00556   0.00582  -0.14363  -0.06430
   1    31     6         -0.14564   0.00189  -0.00824  -0.01403  -0.01546
   2    31     6         -0.15946  -0.01184  -0.01363   0.00961  -0.05443
   3    31     6         -0.04121   0.05365   0.02348  -0.02669  -0.02011
   1    32     6         -0.26433  -0.00005  -0.01197  -0.01686  -0.01561
   2    32     6         -0.25713  -0.03031  -0.02987  -0.02176  -0.05938
   3    32     6         -0.07115   0.08766   0.02230   0.10436   0.03453
   1    33     1         -0.10643   0.02391  -0.01095   0.06971   0.02250
   2    33     1          0.09431  -0.07361  -0.05009  -0.08122  -0.08952
   3    33     1          0.02956   0.09556   0.02178   0.13937   0.04915
   1    34     6         -0.06938  -0.02977  -0.01581  -0.11988  -0.05244
   2    34     6          0.02442  -0.00536  -0.01053  -0.00229  -0.03450
   3    34     6          0.02791   0.13402   0.04471   0.20223   0.08868
   1    35     1         -0.08249  -0.02714  -0.01548  -0.11112  -0.04918
   2    35     1          0.17594  -0.00971  -0.01604  -0.03129  -0.03752
   3    35     1          0.00255   0.16562   0.04409   0.28870   0.12954
   1    36     1         -0.08903  -0.06121  -0.01684  -0.19895  -0.09142
   2    36     1          0.08942   0.01790   0.01351   0.04854  -0.00405
   3    36     1          0.01528   0.12255   0.04151   0.17525   0.07462
   1    37     1          0.08948  -0.02231  -0.01892  -0.11846  -0.04119
   2    37     1         -0.06337  -0.01188  -0.01624  -0.00776  -0.04291
   3    37     1          0.14708   0.14848   0.06724   0.22116   0.10645
   1    38     6         -0.15703  -0.03021  -0.01004  -0.12376  -0.05881
   2    38     6         -0.05665   0.01668   0.02123  -0.00258  -0.03536
   3    38     6          0.01394   0.04903   0.04725  -0.12375  -0.04085
   1    39     1         -0.14315  -0.02495  -0.00937  -0.11948  -0.05694
   2    39     1         -0.01672   0.03129   0.02134   0.00282  -0.03210
   3    39     1          0.03672   0.02134   0.03870  -0.22310  -0.09186
   1    40     1         -0.19879  -0.03903  -0.01243  -0.10688  -0.05307
   2    40     1         -0.06861   0.01228   0.01373   0.00390  -0.03861
   3    40     1          0.07067   0.06815   0.08025  -0.15148  -0.02627
   1    41     1         -0.11956  -0.05367  -0.00869  -0.23320  -0.10398
   2    41     1         -0.01911   0.02897   0.05145  -0.03372  -0.02353
   3    41     1         -0.00379   0.05642   0.04328  -0.08048  -0.02588
   1    42     8         -0.08276   0.04831  -0.02260   0.13393   0.03263
   2    42     8         -0.01711  -0.04082  -0.06459   0.06488  -0.07755
   3    42     8         -0.08450   0.05637   0.06399  -0.11985  -0.02229
   1    43     1         -0.15702   0.05996  -0.02324   0.18870   0.04824
   2    43     1         -0.01157  -0.05627  -0.08812   0.09193  -0.08850
   3    43     1         -0.04819   0.05106   0.06500  -0.14784  -0.02970
   1    44     1          0.07694  -0.03036   0.04743  -0.00532  -0.11056
   2    44     1         -0.04951   0.06505  -0.11152  -0.03708   0.19581
   3    44     1          0.00464  -0.20925   0.03629  -0.03483  -0.01612
   1    45     6          0.06221   0.05541   0.00155  -0.00224  -0.04121
   2    45     6         -0.00104   0.01750  -0.03869   0.00211   0.08195
   3    45     6          0.02201  -0.13069   0.03073  -0.00097  -0.01125
   1    46     8          0.08195   0.12021  -0.02237   0.00660  -0.04774
   2    46     8         -0.01481  -0.00006  -0.00809   0.02672   0.12244
   3    46     8          0.01201  -0.16342   0.04001  -0.00885  -0.01275
   1    47     1          0.00456  -0.01879   0.02448  -0.01960   0.02432
   2    47     1         -0.02322   0.05918  -0.11972  -0.04670   0.15269
   3    47     1         -0.00822  -0.19849   0.08134   0.00782   0.00097
   1    48     1          0.09171  -0.15114   0.10077  -0.02279  -0.09791
   2    48     1         -0.03176   0.05576  -0.16296  -0.08169   0.05560
   3    48     1         -0.01366  -0.13696   0.00363  -0.02437  -0.02603
   1    49     1         -0.12563  -0.09536   0.05609  -0.03693   0.04302
   2    49     1          0.08568   0.02013  -0.12797  -0.05799  -0.05105
   3    49     1          0.13887  -0.07523   0.05423   0.02330   0.02975
   1    50     6          0.01564   0.12643  -0.04154   0.00195  -0.00597
   2    50     6          0.10308   0.01747   0.04080   0.06062   0.00457
   3    50     6          0.04253  -0.01973   0.00887   0.03611   0.00102
   1    51     1         -0.03361   0.13911  -0.06273  -0.01112   0.00539
   2    51     1          0.03328   0.00045   0.05071   0.06077   0.01060
   3    51     1         -0.00078  -0.05706   0.04567   0.05045  -0.00269
   1    52     1          0.05119   0.18201  -0.04539   0.03137  -0.00938
   2    52     1          0.06483   0.01246   0.05928   0.07693   0.00425
   3    52     1          0.09606  -0.01558  -0.01795   0.01062   0.00058
   1    53     1          0.00214   0.11450  -0.04312  -0.00681  -0.00225
   2    53     1          0.14744   0.04380   0.04852   0.08450  -0.00741
   3    53     1          0.01121   0.03830  -0.00567   0.05762   0.00968
   1    54     6         -0.00511  -0.08940  -0.03056   0.01344   0.16325
   2    54     6          0.00064   0.00403   0.00597  -0.08021   0.08483
[...]
 -0.00000712,0.00002171,0.00001042,0.00001125,-0.00006743,-0.00004540,-
 0.00002707,0.00004339,0.00001414,-0.00000502,0.00000082,0.00000121,0.0
 0000205,-0.00000052,-0.00000313,0.00000058,0.00002988,0.00002577,0.000
 00220,0.00001052,0.00000278,-0.00003358,-0.00000466,-0.00001259,0.0000
 1839,-0.00006889,-0.00034600,0.00017784,0.00006998,0.00007174,-0.00007
 080,0.00002275,0.00000041,-0.00000451,-0.00000037,0.00000570,-0.000001
 51,0.00000976,0.00000584,-0.00000588,-0.00001079,-0.00000056,-0.000013
 01,-0.00001445,0.00000871,0.00000206,-0.00013594,-0.00020015,-0.000537
 22,0.00040827,-0.00000864,0.00016866,0.00020336,-0.00004545,-0.0001016
 8,-0.00015082,0.00009380,-0.00000668,0.00000414,0.00000709,-0.00002133
 ,0.00000687,0.00001218,0.00000717,0.00000131,0.00000195,0.00000019,-0.
 00005598,-0.00001109,-0.00001016,0.00002751,0.00000256,0.00002160,-0.0
 0000158,-0.00000052,-0.00000133,0.00000331,0.00000192,-0.00000109,-0.0
 0000173,0.00000236,0.00000322,-0.00000615,0.00000884,0.00001100,0.0000
 0476,-0.00000324,-0.00000238,-0.00000379,0.00000241,-0.00000004,-0.000
 00063,-0.00000400,-0.00001305,-0.00065226,0.00086367,0.00110217,0.0005
 5138,-0.00058299,0.00007125,-0.00013061,-0.00008224,0.00004894,-0.0001
 2220,0.00020549,-0.00025858,-0.00077169,0.00009410,-0.00043047,0.00006
 085,-0.00003606,-0.00016914,-0.00002690,0.00038826,-0.00023935,-0.0001
 9196,-0.00018239,-0.00000509,0.00916360,-0.04914367,-0.02932171,-0.012
 29915,0.05103152,-0.00004470,-0.00004129,0.00000641,0.00006229,0.00006
 192,-0.00000876,-0.00003688,-0.00002560,-0.00000700,0.00005283,-0.0000
 1747,0.00003924,-0.00000012,0.00000086,0.00000317,-0.00005922,0.000057
 44,-0.00010306,0.00004020,0.00003116,0.00002702,0.00000466,0.00000189,
 0.00000121,-0.00000446,-0.00002204,0.00000379,0.00005361,-0.00001293,0
 .00004265,-0.00008440,-0.00027478,0.00007994,0.00014275,0.00048089,-0.
 00013159,-0.00001088,-0.00001392,0.00027955,0.00070868,-0.00085477,-0.
 00081687,-0.00005271,0.00003818,0.00005786,-0.00017578,0.00026134,-0.0
 0025047,-0.00356711,0.00283508,-0.00105703,0.00653620,-0.00249598,-0.0
 2010377,-0.00002179,-0.00005383,0.00036051,-0.00011205,0.00001646,-0.0
 0005948,0.00000251,0.00000191,0.00000003,-0.00000182,-0.00000701,-0.00
 001230,0.00002888,0.00001343,0.00001705,-0.00007241,-0.00001504,-0.000
 01603,0.00010221,0.00002614,-0.00002146,-0.00000103,0.00000059,0.00000
 188,-0.00000420,-0.00000537,0.00000897,-0.00007387,0.00008566,0.000027
 74,0.00000745,-0.00000912,0.00000349,0.00003720,-0.00000509,0.00001163
 ,-0.00004285,-0.00001773,0.00001297,0.00000310,0.00007152,0.00000843,0
 .00000031,-0.00000599,0.00000346,0.00000333,-0.00000577,-0.00000657,0.
 00000613,0.00000151,0.00000136,-0.00000018,0.00000144,-0.00000278,-0.0
 0000149,0.00000058,0.00000040,-0.00011042,0.00000250,-0.00003870,0.000
 05842,0.00006077,0.00003557,0.00004149,-0.00000228,-0.00001123,-0.0000
 0540,0.00003007,-0.00000147,0.00002247,-0.00007472,-0.00003888,-0.0000
 0420,0.00001708,0.00001712,0.00000070,0.00000193,0.00000127,-0.0001097
 6,-0.00003133,-0.00002273,0.00005518,0.00001391,0.00005754,-0.00000201
 ,-0.00000027,-0.00000028,0.00000461,0.00000486,-0.00000277,0.00000007,
 0.00000174,0.00000147,0.00000160,0.00000208,0.00001258,0.00000461,-0.0
 0000447,0.00000193,0.00000843,0.00000976,0.00000165,0.00000493,-0.0000
 0910,-0.00001773,0.00077555,-0.00153356,0.00079660,-0.00014520,0.00069
 471,0.00051695,-0.00004243,0.00008627,-0.00008522,-0.00015323,-0.00012
 484,0.00041190,0.00150251,-0.00036725,0.00071692,-0.00007737,0.0000489
 9,-0.00006829,-0.00080110,-0.00009013,0.00028837,-0.00000382,0.0000901
 4,0.00043641,0.08159038,-0.02843373,-0.28373065,-0.08693095,0.02921846
 ,0.30689289,0.00001605,0.00004456,-0.00000520,-0.00000966,-0.00001368,
 -0.00000680,0.00000706,-0.00000093,-0.00000224,0.00000449,0.00000539,-
 0.00001321,0.00000191,-0.00000028,-0.00000401,-0.00001298,-0.00000453,
 -0.00001424,-0.00003051,0.00007872,0.00006325,-0.00000084,0.00000034,0
 .00000039,0.00000109,0.00000219,0.00000071,-0.00000393,0.00000391,0.00
 001213,-0.00015068,0.00006018,-0.00005603,-0.00000169,-0.00012297,-0.0
 0001614,-0.00013363,0.00010123,0.00022399,-0.00007337,-0.00001023,0.00
 012522,0.00001965,0.00005457,0.00001406,0.00002402,-0.00001502,0.00001
 370,0.00054803,-0.00028154,0.00061049,-0.00088196,0.01802725,0.0055424
 5,0.00023632,-0.00020261,-0.00011731,0.00023056,-0.00007915,-0.0000743
 0,0.00000938,0.00000096,0.00000053,0.00000068,-0.00001767,-0.00001810,
 0.00004654,0.00001690,0.00003398,-0.00015360,-0.00006764,-0.00005137,0
 .00012819,0.00006685,-0.00001493,-0.00000085,0.00000768,0.00000341,-0.
 00000274,-0.00000865,0.00000512,0.00012370,0.00009017,-0.00002053,0.00
 000205,0.00000597,-0.00007275,-0.00002051,-0.00000523,0.00002014,-0.00
 030907,-0.00056185,0.00015154,0.00006736,0.00007393,-0.00008303,0.0000
 3048,-0.00000039,-0.00001455,0.00000926,0.00001806,0.00002665,0.000020
 79,0.00000754,-0.00002013,-0.00003160,-0.00000871,-0.00002397,-0.00002
 308,0.00001604,0.00001035,0.00001129,0.00013534,0.00028584,0.00003137,
 0.00049483,0.00069566,0.00014837,-0.00001012,-0.00019570,-0.00066667,0
 .00026001,-0.00001788,-0.00001491,-0.00000821,-0.00005300,0.00001951,0
 .00002394,0.00000941,0.00000535,0.00000284,-0.00000115,-0.00013418,-0.
 00004972,-0.00003382,0.00006377,0.00002801,0.00005631,-0.00000371,0.00
 000114,-0.00000221,0.00000779,0.00000729,-0.00000158,-0.00000077,0.000
 00588,0.00000613,-0.00006222,-0.00000650,-0.00000386,-0.00001328,0.000
 00157,0.00000395,0.00004436,0.00001579,0.00000720,0.00001008,-0.000056
 56,-0.00001390,-0.00238989,0.00171511,-0.00266797,-0.00007379,-0.00027
 796,-0.00016926,0.00018911,0.00019075,-0.00007198,0.00036173,0.0012811
 2,0.00006285,0.00111650,0.00106051,0.00060023,-0.00052382,-0.00006824,
 -0.00053188,-0.00003969,0.00003947,0.00018450,0.00024583,-0.00025994,0
 .00010353,-0.04700841,-0.00685658,-0.00248457,-0.00046935,0.01015254,0
 .00157089,0.04838898,0.00003315,0.00003564,-0.00004416,-0.00001479,-0.
 00000263,-0.00000511,0.00001750,0.00002303,0.00000445,-0.00000857,0.00
 001827,-0.00002992,0.00000323,-0.00000008,-0.00000551,0.00002709,-0.00
 003779,0.00002836,-0.00004122,0.00006465,0.00006336,0.00000110,-0.0000
 0012,-0.00000299,0.00000585,0.00000207,-0.00001530,-0.00002881,0.00000
 906,-0.00001004,0.00009295,0.00001474,-0.00011554,-0.00002012,0.000244
 01,-0.00008323,-0.00008854,0.00016267,0.00031371,0.00016692,0.00005716
 ,0.00018862,-0.00007843,0.00000465,-0.00009460,-0.00001063,-0.00001931
 ,0.00006206,-0.00021767,-0.00022269,-0.00101507,-0.00108924,-0.0161445
 4,-0.00452282,-0.00022507,0.00035487,0.00059817,0.00008285,-0.00013786
 ,0.00008684,0.00000909,0.00000183,0.00000174,0.00000020,-0.00001903,-0
 .00001169,0.00004056,0.00000960,0.00000469,-0.00009529,-0.00004595,-0.
 00004852,0.00003042,0.00001772,0.00001859,0.00000068,0.00000959,0.0000
 0165,-0.00000104,-0.00000713,-0.00000028,0.00000490,0.00000405,-0.0000
 1892,0.00001914,0.00000595,-0.00003318,-0.00000134,-0.00001868,0.00002
 951,-0.00021902,-0.00039856,0.00024310,0.00014340,0.00006061,-0.000087
 29,0.00001129,-0.00000042,-0.00001109,-0.00000364,0.00001951,0.0000110
 9,0.00001119,0.00000493,-0.00001130,-0.00002572,-0.00000762,-0.0000116
 5,-0.00001923,0.00001365,0.00000407,0.00063428,-0.00096336,-0.00170978
 ,0.00106816,0.00001925,-0.00026527,0.00031246,-0.00010325,-0.00014094,
 -0.00001863,0.00014353,0.00019321,0.00002100,0.00003096,-0.00002081,-0
 .00000285,0.00001098,0.00001361,0.00000428,0.00000102,-0.00000120,-0.0
 0007822,-0.00002432,-0.00002192,0.00003829,0.00002143,0.00002989,-0.00
 000279,0.00000206,-0.00000111,0.00000411,0.00000531,-0.00000085,-0.000
 00193,0.00000632,0.00000232,-0.00000569,0.00000730,-0.00000524,-0.0000
 1151,0.00000285,0.00000358,0.00002139,0.00000797,0.00000724,-0.0000176
 7,-0.00002999,-0.00000124,0.00290440,-0.00067652,0.00339998,-0.0001134
 1,0.00031891,-0.00000286,-0.00012064,0.00028271,-0.00002757,0.00010008
 ,-0.00107981,-0.00026407,-0.00140325,0.00063621,-0.00052539,0.00046340
 ,0.00059921,0.00013136,0.00011052,-0.00011035,0.00003999,-0.00002152,0
 .00034195,0.00015172,-0.00652412,-0.30013410,-0.05610292,-0.00048316,-
 0.00162701,0.00031243,0.00334237,0.32581122,-0.00000502,0.00001105,0.0
 0001802,-0.00001191,-0.00002237,-0.00000068,0.00000592,0.00000474,-0.0
 0000193,-0.00001004,-0.00000240,-0.00000188,-0.00000033,0.00000054,0.0
 0000131,0.00002434,0.00000005,0.00001303,-0.00000870,-0.00003836,0.000
 00212,-0.00000150,-0.00000115,0.00000087,-0.00000206,0.00000542,0.0000
 0269,-0.00000647,-0.00000022,-0.00000591,-0.00008320,0.00016287,0.0000
 1357,0.00005852,-0.00027496,0.00007323,0.00007030,-0.00034593,0.000002
 91,-0.00017556,-0.00000162,0.00018866,0.00004471,0.00000481,0.00004777
 ,0.00002378,-0.00002379,0.00001288,0.00036080,0.00083410,0.00122978,0.
 00098264,0.02010868,0.00399528,0.00003215,-0.00030797,-0.00064905,-0.0
 0003944,0.00006131,0.00002214,-0.00000308,-0.00000428,-0.00000013,0.00
 000237,0.00000765,0.00001512,-0.00003664,-0.00001707,-0.00002342,0.000
 11066,0.00002961,0.00002387,-0.00011036,-0.00002124,0.00002523,-0.0000
 0021,-0.00000093,-0.00000269,0.00000209,0.00000551,-0.00000597,0.00001
 722,-0.00007107,-0.00004205,-0.00001832,0.00000686,0.00002472,-0.00001
 531,0.00001489,-0.00002702,-0.00007610,0.00022015,-0.00013445,-0.00000
 206,-0.00008748,0.00007856,-0.00002959,0.00000264,-0.00000225,-0.00000
 419,0.00000124,0.00001067,-0.00001041,-0.00000371,-0.00000105,-0.00000
 063,-0.00000526,0.00001221,0.00000669,-0.00000413,-0.00000060,0.000931
 04,-0.00045538,-0.00035124,0.00059418,-0.00028309,-0.00054389,-0.00012
 979,0.00001076,0.00003990,-0.00011919,-0.00002654,0.00015866,-0.000018
 30,0.00005372,0.00005436,-0.00000168,-0.00001786,-0.00001660,-0.000002
 20,-0.00000249,-0.00000094,0.00010949,0.00003012,0.00002155,-0.0000552
 3,-0.00000982,-0.00005035,0.00000185,0.00000104,0.00000157,-0.00000557
 ,-0.00000461,0.00000187,0.00000126,-0.00000084,-0.00000274,-0.00000354
 ,-0.00000673,-0.00002529,-0.00001138,0.00000398,0.00000073,0.00000938,
 -0.00000078,-0.00000169,-0.00000238,-0.00001040,0.00002224,-0.00240920
 ,0.00151418,-0.00243085,-0.00024466,0.00012992,0.00028359,0.00001880,-
 0.00013722,-0.00019006,-0.00026588,0.00116582,0.00064599,0.00092519,0.
 00013836,0.00050062,-0.00022392,-0.00015028,0.00016798,-0.00005552,-0.
 00021079,-0.00008726,0.00028207,0.00004161,-0.00009573,-0.00246290,-0.
 05688412,-0.05850970,-0.00178106,-0.02896005,-0.00487408,0.00334821,0.
 06100660,0.06102171,0.00000965,0.00010897,0.00000872,-0.00001141,-0.00
 000358,-0.00002473,0.00000683,-0.00000307,0.00000018,0.00001864,0.0000
 1972,-0.00001623,0.00000109,0.00000271,-0.00000173,-0.00002085,-0.0000
 2260,-0.00001806,0.00002269,-0.00003413,-0.00000328,-0.00000176,0.0000
 0040,-0.00000019,-0.00000272,0.00000031,0.00000253,0.00001261,0.000000
 36,0.00001587,-0.00000630,0.00077355,-0.00024375,0.00086620,-0.0002932
 6,0.00004772,0.00059163,-0.00068919,0.00212502,-0.00034417,-0.00025003
 ,-0.00003771,0.00002404,-0.00010422,0.00008677,-0.00000724,0.00004450,
 -0.00005874,-0.00098496,-0.00028851,0.00074291,-0.01680890,-0.00689012
 ,0.00189819,-0.00002974,0.00002393,-0.00000327,0.00001426,-0.00009674,
 -0.00014176,-0.00000504,-0.00000602,0.00000493,0.00000123,0.00000276,0
 .00000306,-0.00001304,0.00000122,0.00000005,0.00001478,-0.00000868,-0.
 00002412,0.00006702,-0.00004102,-0.00002967,0.00000189,0.00000101,-0.0
 0000352,0.00000349,-0.00000037,-0.00000678,-0.00009153,-0.00000355,-0.
 00000694,0.00001983,0.00001048,0.00000276,0.00001616,-0.00001127,-0.00
 000364,0.00002011,0.00000385,-0.00001189,0.00008449,0.00000088,0.00002
 491,-0.00000317,-0.00000229,0.00000037,0.00001010,-0.00001103,-0.00001
 142,-0.00000386,-0.00000248,0.00000010,0.00000873,-0.00000964,-0.00000
 187,0.00000111,0.00000074,0.00000109,0.00000444,-0.00003333,-0.0000089
 7,0.00008081,0.00014464,0.00000517,0.00000970,0.00000120,-0.00001135,0
 .00011783,-0.00012691,-0.00019258,0.00005494,0.00004273,0.00004995,-0.
 00001694,0.00000016,0.00000375,-0.00000059,-0.00000267,-0.00000022,0.0
 0008676,0.00003557,-0.00001159,-0.00004284,-0.00001306,-0.00001340,0.0
 0000160,0.00000129,0.00000124,-0.00000429,-0.00000177,0.00000476,-0.00
 000360,0.00000404,0.00000159,-0.00006899,-0.00002388,0.00000236,0.0000
 1224,0.00000231,-0.00001187,0.00003838,-0.00001511,-0.00002059,-0.0003
 1236,0.00012996,0.00000639,0.00061171,-0.00129704,0.00026696,-0.000155
 19,0.00002805,-0.00000596,0.00012938,0.00072246,-0.00007605,0.00029865
 ,0.00009972,-0.00003031,-0.00173934,0.00344645,-0.00342427,0.00024110,
 -0.00009862,0.00002334,0.00050702,0.00007907,-0.00000248,-0.00123287,-
 0.00055402,-0.00005386,-0.28149423,-0.08030456,0.01135615,-0.00780854,
 -0.00297229,-0.00068033,0.00106971,0.00126746,0.00047990,0.30613364,0.
 00002426,-0.00002843,0.00005987,0.00001120,0.00002060,-0.00000157,-0.0
 0001321,-0.00001403,0.00000261,0.00001108,0.00000334,0.00002196,-0.000
 00432,0.00000583,0.00000504,-0.00009445,-0.00001514,-0.00003878,0.0000
 8874,-0.00008967,-0.00020920,0.00000069,-0.00000054,0.00000146,-0.0000
 0294,-0.00000098,0.00000641,0.00004284,-0.00001392,0.00001526,0.000071
 75,0.00011363,0.00010373,0.00014412,-0.00008952,0.00004847,0.00000510,
 -0.00082781,0.00120427,0.00005055,-0.00012254,-0.00017343,0.00003652,0
 .00001898,-0.00000462,-0.00000992,0.00003516,-0.00004373,-0.00069463,0
 .00040034,-0.00040414,0.01557481,0.00485222,-0.00265671,-0.00003776,-0
 .00001850,0.00010253,-0.00005897,0.00024685,-0.00023354,-0.00002495,-0
 .00001020,0.00000129,-0.00000431,0.00003107,0.00001276,-0.00002141,-0.
 00000593,-0.00001543,0.00009993,0.00002700,0.00005751,-0.00006920,-0.0
 0006060,-0.00007639,0.00000232,-0.00001065,-0.00000380,-0.00000087,0.0
 0000719,-0.00000391,-0.00011351,-0.00002661,0.00000041,0.00000686,0.00
 000536,0.00002996,0.00002392,0.00000147,-0.00000727,0.00020729,0.00020
 701,-0.00009281,0.00002667,-0.00003293,0.00001551,0.00000102,0.0000115
 6,0.00000595,0.00000686,-0.00000512,-0.00002956,-0.00001194,-0.0000029
 7,0.00001079,0.00002686,-0.00002264,0.00001220,0.00000542,0.00000009,0
 .00000229,-0.00021520,0.00059064,-0.00008378,-0.00031711,-0.00033258,0
 .00010809,-0.00006267,0.00000624,0.00023174,0.00021385,-0.00035068,0.0
 0025316,0.00004999,0.00002996,0.00005966,-0.00001447,-0.00001156,0.000
 00049,-0.00000806,-0.00000351,0.00000485,0.00012757,0.00004835,0.00003
 325,-0.00007497,-0.00003707,-0.00002471,0.00000329,-0.00000181,0.00000
 464,-0.00000771,-0.00000837,0.00000419,-0.00000674,-0.00000263,0.00000
 416,0.00011163,0.00004768,0.00007363,-0.00000933,-0.00001615,-0.000003
 23,-0.00002213,0.00000351,-0.00001875,0.00010882,0.00005100,-0.0001394
 1,0.00065366,0.00123791,-0.00025592,0.00004632,-0.00000887,-0.00011876
 ,0.00007186,-0.00062398,0.00030215,-0.00024150,0.00017041,-0.00006943,
 0.00158959,-0.00167062,0.00198610,0.00015314,0.00027063,0.00023210,-0.
 00013303,-0.00023467,0.00004521,0.00097266,0.00072211,0.00025540,-0.08
 146005,-0.07515864,0.00370847,0.00439565,0.00054774,-0.00002830,-0.028
 44608,-0.00757633,0.00281670,0.08721457,0.07772233,-0.00000940,0.00008
 148,-0.00001325,-0.00005223,-0.00005897,-0.00000376,0.00003452,0.00002
 096,0.00000910,-0.00006137,0.00001084,-0.00005028,0.00000023,-0.000006
 21,0.00000230,0.00015460,-0.00004602,0.00016515,-0.00004839,-0.0000457
 8,0.00002260,-0.00000589,-0.00000222,0.00000055,-0.00000043,0.00001255
 ,0.00000312,-0.00007270,0.00001931,-0.00007082,-0.00026054,0.00071790,
 -0.00039745,0.00057587,-0.00022637,0.00009560,-0.00038486,0.00059335,-
 0.00212176,-0.00019021,0.00006419,0.00025316,0.00001238,-0.00007213,0.
 00006989,0.00004147,-0.00002013,0.00003545,-0.00043853,-0.00075553,0.0
 0083199,-0.01907860,-0.00788974,0.00074713,-0.00006416,-0.00006433,-0.
 00005716,0.00072660,0.00029461,-0.00082333,0.00000122,-0.00000785,-0.0
 0000276,-0.00000503,0.00002562,0.00004154,-0.00010906,-0.00002580,-0.0
 0005268,0.00031462,-0.00010971,0.00012468,-0.00025200,-0.00006884,0.00
 010290,0.00000238,-0.00000251,-0.00000274,0.00000614,0.00001588,-0.000
 02675,-0.00003351,-0.00003367,-0.00005983,0.00000593,0.00000223,-0.000
 00473,-0.00000819,0.00000261,-0.00000771,0.00006953,-0.00007384,-0.000
 07947,0.00010696,-0.00013993,0.00005485,0.00000182,0.00002540,-0.00001
 271,-0.00000515,0.00000677,0.00000946,-0.00000932,-0.00000355,-0.00000
 566,0.00000463,0.00000213,0.00000354,-0.00000243,-0.00000010,-0.000008
 70,0.00003578,0.00028482,0.00003369,-0.00022674,0.00003217,0.00006124,
 -0.00003204,0.00002207,0.00006865,0.00001783,-0.00000383,0.00022721,0.
 00002909,0.00007435,0.00006443,-0.00000948,-0.00000957,-0.00000741,-0.
 00000384,-0.00000344,-0.00000340,0.00024966,0.00010717,0.00005824,-0.0
 0010661,-0.00004026,-0.00014201,0.00000294,0.00000049,-0.00000037,-0.0
 0001266,-0.00001307,0.00000076,-0.00000709,-0.00000377,-0.00000278,0.0
 0001709,-0.00002290,-0.00009702,0.00000386,0.00000432,-0.00001315,-0.0
 0005981,-0.00004725,-0.00001218,-0.00000937,0.00002293,0.00011003,0.00
 058767,-0.00091641,0.00029949,0.00013350,0.00012382,-0.00005411,0.0001
 8438,0.00021160,0.00022503,0.00007682,-0.00015559,-0.00016701,-0.00183
 708,0.00260653,-0.00261140,0.00026427,0.00012159,-0.00010299,-0.000143
 07,0.00011787,0.00026006,-0.00140944,-0.00020845,0.00035651,0.01256392
 ,0.00397209,-0.04628987,0.02761231,0.01026974,0.00030129,-0.00691522,-
 0.00168256,-0.00065592,-0.01197360,-0.00710708,0.04932152\\0.00000278,
 -0.00000094,-0.00000581,0.00000386,-0.00000235,-0.00000759,0.00000393,
 -0.00000356,-0.00000854,0.00000315,-0.00000203,-0.00000732,0.00000376,
 -0.00000241,-0.00000793,0.00000122,-0.00000117,-0.00000388,0.00000031,
 0.00000016,-0.00000412,0.00000582,-0.00000399,-0.00001105,0.00000496,-
 0.00000324,-0.00000942,0.00000029,0.00000016,-0.00000371,0.00000226,0.
 00000053,-0.00000391,0.00000270,-0.00000092,-0.00000660,0.00000080,0.0
 0000003,-0.00000333,0.00000113,0.00000046,-0.00000519,0.00000205,0.000
 00137,-0.00000663,0.00000196,-0.00000144,-0.00000448,-0.00000038,0.000
 00129,-0.00000308,-0.00000110,0.00000483,-0.00000383,-0.00000022,0.000
 00196,-0.00000121,0.00000007,-0.00000187,0.00000087,0.00000121,-0.0000
 0315,0.00000510,0.00000209,-0.00000548,0.00000359,0.00000013,-0.000005
 91,0.00000315,0.00000113,-0.00000400,0.00000513,-0.00000043,0.00000123
 ,0.00000308,0.00000168,-0.00000326,-0.00000081,0.00000388,-0.00000733,
 0.00000147,0.00000079,-0.00000366,0.00000292,0.00000121,-0.00000498,0.
 00000327,0.00000021,-0.00000091,0.00000329,-0.00000130,-0.00000105,0.0
 0000482,-0.00000086,-0.00000329,0.00000562,0.00000047,-0.00000421,0.00
 000582,-0.00000402,0.00000104,0.00000904,-0.00000136,-0.00000163,0.000
 00876,-0.00000277,0.00000094,0.00000768,-0.00000291,-0.00000129,0.0000
 1030,-0.00000215,0.00000130,0.00000451,-0.00000211,0.00000217,0.000003
 26,-0.00000284,0.00000042,0.00000692,-0.00000283,0.00000347,0.00000521
 ,0.00000048,-0.00000444,0.00000542,0.00000052,-0.00000592,0.00000629,0
 .00000130,-0.00000548,0.00000370,-0.00000104,-0.00000268,0.00000365,-0
 .00000112,0.00000195,0.00000483,-0.00000149,-0.00000568,0.00000599,0.0
 0000328,-0.00000853,0.00000287,0.00000025,-0.00000588,0.00000357,-0.00
 000237,0.00000284,0.00000340,-0.00000363,0.00000319,0.00000529,-0.0000
 0170,0.00000304,0.00000238,-0.00000335,0.00000270,0.00000369,-0.000000
 54,0.00000568,-0.00000620,-0.00000144,0.00000826,-0.00000724,0.0000000
 3,0.00000530,-0.00000610,0.00000017,0.00000564,-0.00000855,-0.00000168
 ,0.00000654,-0.00000306,-0.00000195,0.00000542,-0.00000191,-0.00000246
 ,0.00000854,-0.00000433,-0.00000062,0.00000564,-0.00000580,-0.00000224
 ,0.00000634,-0.00000162,-0.00000357,0.00000854,-0.00000173,-0.00000289
 ,0.00000636,0.00000079,-0.00000246,0.00000536,-0.00000067\\\@


 SUPPORT THE RIGHT TO ARM BEARS!
 (ADD A CLAWS TO THE BILL OF RIGHTS)
 Job cpu time:       3 days  0 hours 25 minutes 36.3 seconds.
 File lengths (MBytes):  RWF=   7451 Int=      0 D2E=      0 Chk=     25 Scr=      1
 Normal termination of Gaussian 09 at Fri Feb  2 18:28:48 2018.
