 Entering Gaussian System, Link 0=g09
 Initial command:
 /sw/group/lms/sw/g09_D01/g09/l1.exe "/work/job.575541/Gau-45674.inp" -scrdir="/work/job.575541/"
 Default is to use a total of  28 processors:
                               28 via shared-memory
                                1 via Linda
 Entering Link 1 = /sw/group/lms/sw/g09_D01/g09/l1.exe PID=     45675.
  
 Copyright (c) 1988,1990,1992,1993,1995,1998,2003,2009,2013,
            Gaussian, Inc.  All Rights Reserved.
  
 This is part of the Gaussian(R) 09 program.  It is based on
 the Gaussian(R) 03 system (copyright 2003, Gaussian, Inc.),
 the Gaussian(R) 98 system (copyright 1998, Gaussian, Inc.),
 the Gaussian(R) 94 system (copyright 1995, Gaussian, Inc.),
 the Gaussian 92(TM) system (copyright 1992, Gaussian, Inc.),
 the Gaussian 90(TM) system (copyright 1990, Gaussian, Inc.),
 the Gaussian 88(TM) system (copyright 1988, Gaussian, Inc.),
 the Gaussian 86(TM) system (copyright 1986, Carnegie Mellon
 University), and the Gaussian 82(TM) system (copyright 1983,
 Carnegie Mellon University). Gaussian is a federally registered
 trademark of Gaussian, Inc.
  
 This software contains proprietary and confidential information,
 including trade secrets, belonging to Gaussian, Inc.
  
 This software is provided under written license and may be
 used, copied, transmitted, or stored only in accord with that
 written license.
  
 The following legend is applicable only to US Government
 contracts under FAR:
  
                    RESTRICTED RIGHTS LEGEND
  
 Use, reproduction and disclosure by the US Government is
 subject to restrictions as set forth in subparagraphs (a)
 and (c) of the Commercial Computer Software - Restricted
 Rights clause in FAR 52.227-19.
  
 Gaussian, Inc.
 340 Quinnipiac St., Bldg. 40, Wallingford CT 06492
  
  
 ---------------------------------------------------------------
 Warning -- This program may not be used in any manner that
 competes with the business of Gaussian, Inc. or will provide
 assistance to any competitor of Gaussian, Inc.  The licensee
 of this program is prohibited from giving any competitor of
 Gaussian, Inc. access to this program.  By using this program,
 the user acknowledges that Gaussian, Inc. is engaged in the
 business of creating and licensing software in the field of
 computational chemistry and represents and warrants to the
 licensee that it is not a competitor of Gaussian, Inc. and that
 it will not use this program in any manner prohibited above.
 ---------------------------------------------------------------
  

 Cite this work as:
 Gaussian 09, Revision D.01,
 M. J. Frisch, G. W. Trucks, H. B. Schlegel, G. E. Scuseria, 
 M. A. Robb, J. R. Cheeseman, G. Scalmani, V. Barone, B. Mennucci, 
 G. A. Petersson, H. Nakatsuji, M. Caricato, X. Li, H. P. Hratchian, 
 A. F. Izmaylov, J. Bloino, G. Zheng, J. L. Sonnenberg, M. Hada, 
 M. Ehara, K. Toyota, R. Fukuda, J. Hasegawa, M. Ishida, T. Nakajima, 
 Y. Honda, O. Kitao, H. Nakai, T. Vreven, J. A. Montgomery, Jr., 
 J. E. Peralta, F. Ogliaro, M. Bearpark, J. J. Heyd, E. Brothers, 
 K. N. Kudin, V. N. Staroverov, T. Keith, R. Kobayashi, J. Normand, 
 K. Raghavachari, A. Rendell, J. C. Burant, S. S. Iyengar, J. Tomasi, 
 M. Cossi, N. Rega, J. M. Millam, M. Klene, J. E. Knox, J. B. Cross, 
 V. Bakken, C. Adamo, J. Jaramillo, R. Gomperts, R. E. Stratmann, 
 O. Yazyev, A. J. Austin, R. Cammi, C. Pomelli, J. W. Ochterski, 
 R. L. Martin, K. Morokuma, V. G. Zakrzewski, G. A. Voth, 
 P. Salvador, J. J. Dannenberg, S. Dapprich, A. D. Daniels, 
 O. Farkas, J. B. Foresman, J. V. Ortiz, J. Cioslowski, 
 and D. J. Fox, Gaussian, Inc., Wallingford CT, 2013.
 
 ******************************************
 Gaussian 09:  ES64L-G09RevD.01 24-Apr-2013
                 2-Feb-2018 
 ******************************************
 %chk=Sub-10-Cl-18-tBu.S.2_2a_s_down.Cf1.chk
 ---------------------------------------------------------
 #M06/genecp denfit freq=(hpmodes,noraman,temperature=298)
 ---------------------------------------------------------
 1/10=4,30=1,38=1,112=298000/1,3;
 2/12=2,17=6,18=5,40=1/2;
 3/5=7,11=2,16=1,17=8,25=1,30=1,71=2,74=-54,82=47,140=1/1,2,3;
 4//1;
 5/5=2,38=5,98=1/2;
 8/6=4,10=90,11=11/1;
 11/6=1,8=1,9=11,15=111,16=1/1,2,10;
 10/6=1/2;
 6/7=2,8=2,9=2,10=2,18=1,28=1/1;
 7/8=11,10=1,25=1/1,2,3,16;
 1/10=4,30=1/3;
 99//99;
 -----------------------------------------------------
 Sub-10-Cl-18-tBu/S/2_2a_s_down/Cf1 step 4 (attempt 1)
 -----------------------------------------------------
 Symbolic Z-matrix:
 Charge =  1 Multiplicity = 1
 C                    0     1.81994   2.1143   -0.69892 
 C                    0     2.63999   3.06312  -1.28656 
 C                    0     4.02053   2.91339  -1.15972 
 C                    0     4.5098    1.85543  -0.41661 
 H                    0     5.57336   1.71402  -0.24364 
 C                    0     3.59183   0.95649   0.13907 
 N                    0     2.27943   1.03214  -0.02169 
 H                    0     4.70203   3.63177  -1.60993 
 H                    0     2.19817   3.9034   -1.81552 
 Cl                   0     4.22811  -0.28843   1.16062 
 C                    0     0.36363   2.28746  -0.6885 
 O                    0    -0.14161   3.37589  -1.26166 
 N                    0    -0.44111   1.48257  -0.09846 
 C                    0    -1.58347   3.22435  -1.16326 
 H                    0    -1.99669   4.1997   -0.89341 
 H                    0    -1.94528   2.94034  -2.15972 
 C                    0    -1.7714    2.12195  -0.10855 
 C                    0    -2.19829   2.61934   1.29227 
 H                    0    -2.51879   1.38493  -0.44004 
 Pd                   0     0.44231  -0.55327   0.03357 
 C                    0    -4.09348  -0.98751  -1.48008 
 C                    0    -2.38039  -1.5636    0.37937 
 C                    0    -1.64714  -0.98965  -1.96134 
 C                    0    -1.39542  -1.35988  -0.5249 
 C                    0    -3.01697  -1.4684   -2.43512 
 H                    0    -1.58552   0.10841  -2.06498 
 H                    0    -3.02861  -2.56729  -2.48902 
 C                    0     2.3982   -2.53131  -1.04472 
 H                    0     3.30189  -2.00184  -0.7246 
 H                    0     2.06998  -2.10626  -2.00211 
 C                    0     1.32892  -2.48434   0.01186 
 C                    0     0.01511  -2.93674  -0.30111 
 C                    0     1.76495  -2.84751   1.41462 
 H                    0     2.72093  -2.37134   1.66382 
 H                    0     1.0142   -2.51997   2.15517 
 H                    0    -5.0833   -1.39987  -1.71129 
 C                    0    -3.79838  -1.29939  -0.03129 
 O                    0    -4.68185  -1.28032   0.80683 
 C                    0    -2.20097  -2.01279   1.79432 
 H                    0    -2.924    -1.51535   2.4493 
 H                    0    -2.41147  -3.09014   1.88725 
 H                    0    -1.19212  -1.81496   2.1725 
 H                    0    -4.20554   0.10976  -1.55221 
 H                    0    -3.20946  -1.10348  -3.45245 
 H                    0    -0.8528   -1.38017  -2.611 
 C                    0    -0.26699  -3.68145  -1.56635 
 H                    0     0.24292  -4.65285  -1.45835 
 H                    0    -1.33392  -3.88057  -1.70659 
 H                    0     0.13752  -3.21123  -2.46872 
 O                    0     1.88136  -4.26075   1.39923 
 H                    0     2.28457  -4.57156   2.22242 
 H                    0     2.6853   -3.58026  -1.22628 
 H                    0    -0.53387  -3.31435   0.56177 
 C                    0    -1.25122   3.69444   1.82255 
 H                    0    -1.58465   4.02159   2.81638 
 H                    0    -0.2254    3.31511   1.93565 
 H                    0    -1.22148   4.59055   1.18692 
 C                    0    -3.61837   3.17627   1.1743 
 H                    0    -4.31886   2.41223   0.80307 
 H                    0    -3.97955   3.49691   2.16044 
 H                    0    -3.6839    4.05132   0.5121 
 C                    0    -2.22111   1.44256   2.26382 
 H                    0    -2.56012   1.7789    3.25293 
 H                    0    -2.92      0.66459   1.92577 
 H                    0    -1.22686   0.99074   2.38487 
 

 GradGradGradGradGradGradGradGradGradGradGradGradGradGradGradGradGradGrad
 Berny optimization.
 Initialization pass.
 Trust Radius=3.00D-01 FncErr=1.00D-07 GrdErr=1.00D-07
 Number of steps in this run=      2 maximum allowed number of steps=      2.
 GradGradGradGradGradGradGradGradGradGradGradGradGradGradGradGradGradGrad

 Stoichiometry    C24H34ClN2O3Pd(1+)
 Framework group  C1[X(C24H34ClN2O3Pd)]
 Deg. of freedom   189
 Full point group                 C1      NOp   1
 Largest Abelian subgroup         C1      NOp   1
 Largest concise Abelian subgroup C1      NOp   1
                         Standard orientation:                         
 ---------------------------------------------------------------------
 Center     Atomic      Atomic             Coordinates (Angstroms)
 Number     Number       Type             X           Y           Z
 ---------------------------------------------------------------------
      1          6           0        1.819945    2.114303   -0.698924
      2          6           0        2.639988    3.063118   -1.286561
      3          6           0        4.020532    2.913393   -1.159718
      4          6           0        4.509796    1.855430   -0.416610
      5          1           0        5.573358    1.714019   -0.243638
      6          6           0        3.591833    0.956489    0.139068
      7          7           0        2.279433    1.032141   -0.021690
      8          1           0        4.702035    3.631772   -1.609933
      9          1           0        2.198170    3.903398   -1.815519
     10         17           0        4.228105   -0.288432    1.160619
     11          6           0        0.363632    2.287455   -0.688503
     12          8           0       -0.141611    3.375890   -1.261656
     13          7           0       -0.441108    1.482573   -0.098464
     14          6           0       -1.583471    3.224350   -1.163259
     15          1           0       -1.996689    4.199706   -0.893413
     16          1           0       -1.945279    2.940338   -2.159716
     17          6           0       -1.771400    2.121952   -0.108548
     18          6           0       -2.198293    2.619338    1.292274
     19          1           0       -2.518786    1.384935   -0.440042
     20         46           0        0.442310   -0.553267    0.033566
     21          6           0       -4.093480   -0.987505   -1.480078
     22          6           0       -2.380391   -1.563603    0.379367
     23          6           0       -1.647140   -0.989653   -1.961339
     24          6           0       -1.395422   -1.359876   -0.524903
     25          6           0       -3.016973   -1.468399   -2.435122
     26          1           0       -1.585515    0.108414   -2.064982
     27          1           0       -3.028609   -2.567292   -2.489018
     28          6           0        2.398202   -2.531307   -1.044722
     29          1           0        3.301893   -2.001845   -0.724599
     30          1           0        2.069981   -2.106262   -2.002107
     31          6           0        1.328919   -2.484337    0.011863
     32          6           0        0.015112   -2.936744   -0.301114
     33          6           0        1.764946   -2.847507    1.414617
     34          1           0        2.720933   -2.371344    1.663819
     35          1           0        1.014202   -2.519965    2.155173
     36          1           0       -5.083300   -1.399869   -1.711291
     37          6           0       -3.798377   -1.299390   -0.031289
     38          8           0       -4.681851   -1.280321    0.806826
     39          6           0       -2.200967   -2.012786    1.794323
     40          1           0       -2.923997   -1.515350    2.449297
     41          1           0       -2.411471   -3.090136    1.887251
     42          1           0       -1.192116   -1.814960    2.172498
     43          1           0       -4.205535    0.109765   -1.552207
     44          1           0       -3.209459   -1.103478   -3.452450
     45          1           0       -0.852799   -1.380165   -2.610999
     46          6           0       -0.266995   -3.681450   -1.566353
     47          1           0        0.242920   -4.652853   -1.458347
     48          1           0       -1.333921   -3.880568   -1.706585
     49          1           0        0.137515   -3.211231   -2.468721
     50          8           0        1.881362   -4.260750    1.399228
     51          1           0        2.284571   -4.571564    2.222423
     52          1           0        2.685298   -3.580258   -1.226283
     53          1           0       -0.533870   -3.314347    0.561765
     54          6           0       -1.251218    3.694444    1.822552
     55          1           0       -1.584644    4.021589    2.816375
     56          1           0       -0.225398    3.315106    1.935651
     57          1           0       -1.221481    4.590554    1.186922
     58          6           0       -3.618371    3.176273    1.174303
     59          1           0       -4.318860    2.412229    0.803068
     60          1           0       -3.979550    3.496913    2.160437
     61          1           0       -3.683895    4.051319    0.512096
     62          6           0       -2.221109    1.442560    2.263816
     63          1           0       -2.560120    1.778896    3.252934
     64          1           0       -2.920004    0.664593    1.925770
     65          1           0       -1.226859    0.990742    2.384874
 ---------------------------------------------------------------------
 Rotational constants (GHZ):      0.1575595      0.1273995      0.0876059
 General basis read from cards:  (5D, 7F)
 ======================================================================================================
                                       Pseudopotential Parameters
 ======================================================================================================
  Center     Atomic      Valence      Angular      Power
  Number     Number     Electrons     Momentum     of R      Exponent        Coefficient   SO-Coeffient
 ======================================================================================================
    1          6
                                   No pseudopotential on this center.
    2          6
                                   No pseudopotential on this center.
    3          6
                                   No pseudopotential on this center.
    4          6
                                   No pseudopotential on this center.
    5          1
                                   No pseudopotential on this center.
    6          6
                                   No pseudopotential on this center.
    7          7
                                   No pseudopotential on this center.
    8          1
                                   No pseudopotential on this center.
    9          1
                                   No pseudopotential on this center.
   10         17
                                   No pseudopotential on this center.
   11          6
                                   No pseudopotential on this center.
   12          8
                                   No pseudopotential on this center.
   13          7
                                   No pseudopotential on this center.
   14          6
                                   No pseudopotential on this center.
   15          1
                                   No pseudopotential on this center.
   16          1
                                   No pseudopotential on this center.
   17          6
                                   No pseudopotential on this center.
   18          6
                                   No pseudopotential on this center.
   19          1
                                   No pseudopotential on this center.
   20         46           18
                                      F and up 
                                                     0      598.3336444       -0.05631770    0.00000000
                                                     1      162.4298290      -20.12880360    0.00000000
                                                     2       51.5714771     -105.81979230    0.00000000
                                                     2       16.4888260      -42.57333450    0.00000000
                                                     2        5.8287656       -3.61650860    0.00000000
                                      S - F
                                                     0       73.3806304        3.00036510    0.00000000
                                                     1       14.7550438       32.43500930    0.00000000
                                                     2       17.8350204      459.08303830    0.00000000
                                                     2       12.7111477     -868.06290290    0.00000000
                                                     2        9.3292063      514.47260980    0.00000000
                                      P - F
                                                     0       55.6689877        4.95930990    0.00000000
                                                     1       64.2337771       21.17110290    0.00000000
                                                     2       17.6254952      605.05600920    0.00000000
                                                     2       11.9058155     -726.96418460    0.00000000
                                                     2        8.5100832      396.32748830    0.00000000
                                      D - F
                                                     0       49.9994728        3.05087450    0.00000000
                                                     1       39.7477547       22.25065800    0.00000000
                                                     2       11.4321366      674.83576980    0.00000000
                                                     2        9.1790080    -1040.85540480    0.00000000
                                                     2        7.5624429      505.93751470    0.00000000
   21          6
                                   No pseudopotential on this center.
   22          6
                                   No pseudopotential on this center.
   23          6
                                   No pseudopotential on this center.
   24          6
                                   No pseudopotential on this center.
   25          6
                                   No pseudopotential on this center.
   26          1
                                   No pseudopotential on this center.
   27          1
                                   No pseudopotential on this center.
   28          6
                                   No pseudopotential on this center.
   29          1
                                   No pseudopotential on this center.
   30          1
                                   No pseudopotential on this center.
   31          6
                                   No pseudopotential on this center.
   32          6
                                   No pseudopotential on this center.
   33          6
                                   No pseudopotential on this center.
   34          1
                                   No pseudopotential on this center.
   35          1
                                   No pseudopotential on this center.
   36          1
                                   No pseudopotential on this center.
   37          6
                                   No pseudopotential on this center.
   38          8
                                   No pseudopotential on this center.
   39          6
                                   No pseudopotential on this center.
   40          1
                                   No pseudopotential on this center.
   41          1
                                   No pseudopotential on this center.
   42          1
                                   No pseudopotential on this center.
   43          1
                                   No pseudopotential on this center.
   44          1
                                   No pseudopotential on this center.
   45          1
                                   No pseudopotential on this center.
   46          6
                                   No pseudopotential on this center.
   47          1
                                   No pseudopotential on this center.
   48          1
                                   No pseudopotential on this center.
   49          1
                                   No pseudopotential on this center.
   50          8
                                   No pseudopotential on this center.
   51          1
                                   No pseudopotential on this center.
   52          1
                                   No pseudopotential on this center.
   53          1
                                   No pseudopotential on this center.
   54          6
                                   No pseudopotential on this center.
   55          1
                                   No pseudopotential on this center.
   56          1
                                   No pseudopotential on this center.
   57          1
                                   No pseudopotential on this center.
   58          6
                                   No pseudopotential on this center.
   59          1
                                   No pseudopotential on this center.
   60          1
                                   No pseudopotential on this center.
   61          1
                                   No pseudopotential on this center.
   62          6
                                   No pseudopotential on this center.
   63          1
                                   No pseudopotential on this center.
   64          1
                                   No pseudopotential on this center.
   65          1
                                   No pseudopotential on this center.
 ======================================================================================================
 There are   666 symmetry adapted cartesian basis functions of A   symmetry.
 There are   634 symmetry adapted basis functions of A   symmetry.
   634 basis functions,  1169 primitive gaussians,   666 cartesian basis functions
   125 alpha electrons      125 beta electrons
       nuclear repulsion energy      3969.1428334016 Hartrees.
 NAtoms=   65 NActive=   65 NUniq=   65 SFac= 1.00D+00 NAtFMM=   60 NAOKFM=T Big=T
 Integral buffers will be    131072 words long.
 Raffenetti 2 integral format.
 Two-electron integral symmetry is turned on.
 Standard density basis: Auto (5D, 7F)
  2775 Density fitting functions
 There are  2775 symmetry adapted density basis functions of A   symmetry.
 One-electron integrals computed using PRISM.
   1 Symmetry operations used in ECPInt.
 ECPInt:  NShTT=   25878 NPrTT=  135610 LenC2=   23148 LenP2D=   72189.
 LDataN:  DoStor=T MaxTD1= 5 Len=  102
 NBasis=   634 RedAO= T EigKep=  1.03D-06  NBF=   634
 NBsUse=   633 1.00D-06 EigRej=  3.03D-07 NBFU=   633
 Defaulting to unpruned grid for atomic number  46.
 ExpMin= 2.62D-02 ExpMax= 2.52D+04 ExpMxC= 3.78D+03 IAcc=3 IRadAn=         5 AccDes= 0.00D+00
 Harris functional with IExCor= 1009 and IRadAn=       5 diagonalized for initial guess.
 HarFok:  IExCor= 1009 AccDes= 0.00D+00 IRadAn=         5 IDoV= 1 UseB2=F ITyADJ=14
 ICtDFT=  3500011 ScaDFX=  1.000000  1.000000  1.000000  1.000000
 Defaulting to unpruned grid for atomic number  46.
 Defaulting to unpruned grid for atomic number  46.
 Defaulting to unpruned grid for atomic number  46.
 Defaulting to unpruned grid for atomic number  46.
 Defaulting to unpruned grid for atomic number  46.
 Defaulting to unpruned grid for atomic number  46.
 Defaulting to unpruned grid for atomic number  46.
 Defaulting to unpruned grid for atomic number  46.
 Defaulting to unpruned grid for atomic number  46.
 Defaulting to unpruned grid for atomic number  46.
 Defaulting to unpruned grid for atomic number  46.
 Defaulting to unpruned grid for atomic number  46.
 Defaulting to unpruned grid for atomic number  46.
 Defaulting to unpruned grid for atomic number  46.
 Defaulting to unpruned grid for atomic number  46.
 Defaulting to unpruned grid for atomic number  46.
 Defaulting to unpruned grid for atomic number  46.
 Defaulting to unpruned grid for atomic number  46.
 Defaulting to unpruned grid for atomic number  46.
 Defaulting to unpruned grid for atomic number  46.
 Defaulting to unpruned grid for atomic number  46.
 Defaulting to unpruned grid for atomic number  46.
 Defaulting to unpruned grid for atomic number  46.
 Defaulting to unpruned grid for atomic number  46.
 Defaulting to unpruned grid for atomic number  46.
 Defaulting to unpruned grid for atomic number  46.
 Defaulting to unpruned grid for atomic number  46.
 Defaulting to unpruned grid for atomic number  46.
 FoFCou: FMM=F IPFlag=           0 FMFlag=      100000 FMFlg1=        2001
         NFxFlg=           0 DoJE=T BraDBF=F KetDBF=T FulRan=T
         wScrn=  0.000000 ICntrl=     500 IOpCl=  0 I1Cent=   200000004 NGrid=           0
         NMat0=    1 NMatS0=      1 NMatT0=    0 NMatD0=    1 NMtDS0=    0 NMtDT0=    0
 Petite list used in FoFCou.
 Requested convergence on RMS density matrix=1.00D-08 within 128 cycles.
 Requested convergence on MAX density matrix=1.00D-06.
 Requested convergence on             energy=1.00D-06.
 No special actions if energy rises.
 Defaulting to unpruned grid for atomic number  46.
 Defaulting to unpruned grid for atomic number  46.
 Defaulting to unpruned grid for atomic number  46.
 Defaulting to unpruned grid for atomic number  46.
 Defaulting to unpruned grid for atomic number  46.
 Defaulting to unpruned grid for atomic number  46.
 Defaulting to unpruned grid for atomic number  46.
 Defaulting to unpruned grid for atomic number  46.
 Defaulting to unpruned grid for atomic number  46.
 Defaulting to unpruned grid for atomic number  46.
 Defaulting to unpruned grid for atomic number  46.
 Defaulting to unpruned grid for atomic number  46.
 Defaulting to unpruned grid for atomic number  46.
 Defaulting to unpruned grid for atomic number  46.
 Defaulting to unpruned grid for atomic number  46.
 Defaulting to unpruned grid for atomic number  46.
 Defaulting to unpruned grid for atomic number  46.
 Defaulting to unpruned grid for atomic number  46.
 Defaulting to unpruned grid for atomic number  46.
 Defaulting to unpruned grid for atomic number  46.
 Defaulting to unpruned grid for atomic number  46.
 Defaulting to unpruned grid for atomic number  46.
 Defaulting to unpruned grid for atomic number  46.
 Defaulting to unpruned grid for atomic number  46.
 Defaulting to unpruned grid for atomic number  46.
 Defaulting to unpruned grid for atomic number  46.
 Defaulting to unpruned grid for atomic number  46.
 Defaulting to unpruned grid for atomic number  46.
 EnCoef did     3 forward-backward iterations
 EnCoef did     2 forward-backward iterations
 EnCoef did     4 forward-backward iterations
 EnCoef did     2 forward-backward iterations
 Restarting incremental Fock formation.
 SCF Done:  E(RM06) =  -1856.01694101     A.U. after   27 cycles
            NFock= 27  Conv=0.29D-08     -V/T= 2.0508
 DoSCS=F DFT=T ScalE2(SS,OS)=  1.000000  1.000000
 Range of M.O.s used for correlation:     1   633
 NBasis=   634 NAE=   125 NBE=   125 NFC=     0 NFV=     0
 NROrb=    633 NOA=   125 NOB=   125 NVA=   508 NVB=   508

 **** Warning!!: The largest alpha MO coefficient is  0.14665927D+03

   1 Symmetry operations used in ECPInt.
 ECPInt:  NShTT=   25878 NPrTT=  135610 LenC2=   23148 LenP2D=   72189.
 LDataN:  DoStor=T MaxTD1= 6 Len=  172
 Number of processors reduced to   9 by ecpmxn.
 Symmetrizing basis deriv contribution to polar:
 IMax=3 JMax=2 DiffMx= 0.00D+00
 G2DrvN: will do    66 centers at a time, making    1 passes.
 Calling FoFCou, ICntrl=  3107 FMM=T I1Cent=   0 AccDes= 0.00D+00.
 Defaulting to unpruned grid for atomic number  46.
 Defaulting to unpruned grid for atomic number  46.
 Defaulting to unpruned grid for atomic number  46.
 Defaulting to unpruned grid for atomic number  46.
 Defaulting to unpruned grid for atomic number  46.
 Defaulting to unpruned grid for atomic number  46.
 Defaulting to unpruned grid for atomic number  46.
 Defaulting to unpruned grid for atomic number  46.
 Defaulting to unpruned grid for atomic number  46.
 Defaulting to unpruned grid for atomic number  46.
 Defaulting to unpruned grid for atomic number  46.
 Defaulting to unpruned grid for atomic number  46.
 Defaulting to unpruned grid for atomic number  46.
 Defaulting to unpruned grid for atomic number  46.
 Defaulting to unpruned grid for atomic number  46.
 Defaulting to unpruned grid for atomic number  46.
 Defaulting to unpruned grid for atomic number  46.
 Defaulting to unpruned grid for atomic number  46.
 Defaulting to unpruned grid for atomic number  46.
 Defaulting to unpruned grid for atomic number  46.
 Defaulting to unpruned grid for atomic number  46.
 Defaulting to unpruned grid for atomic number  46.
 Defaulting to unpruned grid for atomic number  46.
 Defaulting to unpruned grid for atomic number  46.
 Defaulting to unpruned grid for atomic number  46.
 Defaulting to unpruned grid for atomic number  46.
 Defaulting to unpruned grid for atomic number  46.
 Defaulting to unpruned grid for atomic number  46.
 End of G2Drv F.D. properties file   721 does not exist.
 End of G2Drv F.D. properties file   722 does not exist.
 End of G2Drv F.D. properties file   788 does not exist.
          IDoAtm=11111111111111111111111111111111111111111111111111
          IDoAtm=111111111111111
          Differentiating once with respect to electric field.
                with respect to dipole field.
          Differentiating once with respect to nuclear coordinates.
 Defaulting to unpruned grid for atomic number  46.
 CalDSu exits because no D1Ps are significant.
 Defaulting to unpruned grid for atomic number  46.
 Defaulting to unpruned grid for atomic number  46.
 Defaulting to unpruned grid for atomic number  46.
 Defaulting to unpruned grid for atomic number  46.
 Defaulting to unpruned grid for atomic number  46.
 Defaulting to unpruned grid for atomic number  46.
 Defaulting to unpruned grid for atomic number  46.
 Defaulting to unpruned grid for atomic number  46.
 Defaulting to unpruned grid for atomic number  46.
 Defaulting to unpruned grid for atomic number  46.
 Defaulting to unpruned grid for atomic number  46.
 Defaulting to unpruned grid for atomic number  46.
 Defaulting to unpruned grid for atomic number  46.
 Defaulting to unpruned grid for atomic number  46.
 Defaulting to unpruned grid for atomic number  46.
 Defaulting to unpruned grid for atomic number  46.
 Defaulting to unpruned grid for atomic number  46.
 Defaulting to unpruned grid for atomic number  46.
 Defaulting to unpruned grid for atomic number  46.
 Defaulting to unpruned grid for atomic number  46.
 Defaulting to unpruned grid for atomic number  46.
 Defaulting to unpruned grid for atomic number  46.
 Defaulting to unpruned grid for atomic number  46.
 Defaulting to unpruned grid for atomic number  46.
 Defaulting to unpruned grid for atomic number  46.
 Defaulting to unpruned grid for atomic number  46.
 Defaulting to unpruned grid for atomic number  46.
 Defaulting to unpruned grid for atomic number  46.
          There are   198 degrees of freedom in the 1st order CPHF.  IDoFFX=6 NUNeed=     3.
    198 vectors produced by pass  0 Test12= 6.35D-14 1.00D-09 XBig12= 4.74D+02 8.37D+00.
 AX will form    84 AO Fock derivatives at one time.
    198 vectors produced by pass  1 Test12= 6.35D-14 1.00D-09 XBig12= 9.72D+01 1.43D+00.
    195 vectors produced by pass  2 Test12= 6.35D-14 1.00D-09 XBig12= 1.83D+00 1.01D-01.
    195 vectors produced by pass  3 Test12= 6.35D-14 1.00D-09 XBig12= 1.26D-02 8.71D-03.
    195 vectors produced by pass  4 Test12= 6.35D-14 1.00D-09 XBig12= 6.45D-05 5.21D-04.
    195 vectors produced by pass  5 Test12= 6.35D-14 1.00D-09 XBig12= 1.93D-07 2.67D-05.
    195 vectors produced by pass  6 Test12= 6.35D-14 1.00D-09 XBig12= 4.57D-10 1.10D-06.
    193 vectors produced by pass  7 Test12= 6.35D-14 1.00D-09 XBig12= 4.01D-12 6.68D-08.
    193 vectors produced by pass  8 Test12= 6.35D-14 1.00D-09 XBig12= 2.55D-13 1.60D-08.
    193 vectors produced by pass  9 Test12= 6.35D-14 1.00D-09 XBig12= 8.50D-14 1.45D-08.
    192 vectors produced by pass 10 Test12= 6.35D-14 1.00D-09 XBig12= 7.60D-14 1.09D-08.
    161 vectors produced by pass 11 Test12= 6.35D-14 1.00D-09 XBig12= 3.85D-14 7.76D-09.
    142 vectors produced by pass 12 Test12= 6.35D-14 1.00D-09 XBig12= 3.80D-14 7.36D-09.
     90 vectors produced by pass 13 Test12= 6.35D-14 1.00D-09 XBig12= 2.62D-14 5.33D-09.
     90 vectors produced by pass 14 Test12= 6.35D-14 1.00D-09 XBig12= 3.44D-14 6.70D-09.
     80 vectors produced by pass 15 Test12= 6.35D-14 1.00D-09 XBig12= 4.94D-14 7.36D-09.
     29 vectors produced by pass 16 Test12= 6.35D-14 1.00D-09 XBig12= 1.73D-14 4.65D-09.
     27 vectors produced by pass 17 Test12= 6.35D-14 1.00D-09 XBig12= 1.48D-14 4.44D-09.
     13 vectors produced by pass 18 Test12= 6.35D-14 1.00D-09 XBig12= 4.93D-15 2.62D-09.
     13 vectors produced by pass 19 Test12= 6.35D-14 1.00D-09 XBig12= 7.31D-15 3.16D-09.
     13 vectors produced by pass 20 Test12= 6.35D-14 1.00D-09 XBig12= 2.05D-14 4.87D-09.
     12 vectors produced by pass 21 Test12= 6.35D-14 1.00D-09 XBig12= 3.76D-15 2.09D-09.
     12 vectors produced by pass 22 Test12= 6.35D-14 1.00D-09 XBig12= 7.70D-15 3.17D-09.
     12 vectors produced by pass 23 Test12= 6.35D-14 1.00D-09 XBig12= 7.39D-15 2.75D-09.
     12 vectors produced by pass 24 Test12= 6.35D-14 1.00D-09 XBig12= 8.14D-15 2.75D-09.
     12 vectors produced by pass 25 Test12= 6.35D-14 1.00D-09 XBig12= 1.16D-14 3.75D-09.
     12 vectors produced by pass 26 Test12= 6.35D-14 1.00D-09 XBig12= 8.43D-15 2.94D-09.
     12 vectors produced by pass 27 Test12= 6.35D-14 1.00D-09 XBig12= 9.48D-15 3.20D-09.
     12 vectors produced by pass 28 Test12= 6.35D-14 1.00D-09 XBig12= 1.34D-14 3.67D-09.
     12 vectors produced by pass 29 Test12= 6.35D-14 1.00D-09 XBig12= 1.21D-14 4.30D-09.
     12 vectors produced by pass 30 Test12= 6.35D-14 1.00D-09 XBig12= 1.27D-14 3.41D-09.
     12 vectors produced by pass 31 Test12= 6.35D-14 1.00D-09 XBig12= 1.75D-14 4.79D-09.
     12 vectors produced by pass 32 Test12= 6.35D-14 1.00D-09 XBig12= 2.50D-14 5.33D-09.
     11 vectors produced by pass 33 Test12= 6.35D-14 1.00D-09 XBig12= 4.87D-15 2.13D-09.
     11 vectors produced by pass 34 Test12= 6.35D-14 1.00D-09 XBig12= 6.59D-15 2.50D-09.
     11 vectors produced by pass 35 Test12= 6.35D-14 1.00D-09 XBig12= 6.21D-15 2.85D-09.
     11 vectors produced by pass 36 Test12= 6.35D-14 1.00D-09 XBig12= 1.20D-14 3.62D-09.
     11 vectors produced by pass 37 Test12= 6.35D-14 1.00D-09 XBig12= 6.51D-15 2.51D-09.
     11 vectors produced by pass 38 Test12= 6.35D-14 1.00D-09 XBig12= 7.32D-15 2.98D-09.
     11 vectors produced by pass 39 Test12= 6.35D-14 1.00D-09 XBig12= 2.12D-14 5.02D-09.
     11 vectors produced by pass 40 Test12= 6.35D-14 1.00D-09 XBig12= 8.18D-15 3.02D-09.
     11 vectors produced by pass 41 Test12= 6.35D-14 1.00D-09 XBig12= 1.17D-14 3.50D-09.
     11 vectors produced by pass 42 Test12= 6.35D-14 1.00D-09 XBig12= 3.78D-15 2.23D-09.
     11 vectors produced by pass 43 Test12= 6.35D-14 1.00D-09 XBig12= 4.03D-15 1.97D-09.
     11 vectors produced by pass 44 Test12= 6.35D-14 1.00D-09 XBig12= 6.96D-15 2.94D-09.
     11 vectors produced by pass 45 Test12= 6.35D-14 1.00D-09 XBig12= 2.72D-15 1.80D-09.
     11 vectors produced by pass 46 Test12= 6.35D-14 1.00D-09 XBig12= 4.04D-15 2.20D-09.
     11 vectors produced by pass 47 Test12= 6.35D-14 1.00D-09 XBig12= 4.94D-15 2.41D-09.
     11 vectors produced by pass 48 Test12= 6.35D-14 1.00D-09 XBig12= 1.70D-14 4.74D-09.
     11 vectors produced by pass 49 Test12= 6.35D-14 1.00D-09 XBig12= 7.42D-15 2.62D-09.
     11 vectors produced by pass 50 Test12= 6.35D-14 1.00D-09 XBig12= 3.67D-15 1.85D-09.
     11 vectors produced by pass 51 Test12= 6.35D-14 1.00D-09 XBig12= 3.41D-15 1.71D-09.
     11 vectors produced by pass 52 Test12= 6.35D-14 1.00D-09 XBig12= 3.63D-15 1.78D-09.
     11 vectors produced by pass 53 Test12= 6.35D-14 1.00D-09 XBig12= 7.50D-15 2.89D-09.
     11 vectors produced by pass 54 Test12= 6.35D-14 1.00D-09 XBig12= 9.62D-15 3.18D-09.
     11 vectors produced by pass 55 Test12= 6.35D-14 1.00D-09 XBig12= 6.90D-15 2.87D-09.
     11 vectors produced by pass 56 Test12= 6.35D-14 1.00D-09 XBig12= 1.19D-14 3.66D-09.
     10 vectors produced by pass 57 Test12= 6.35D-14 1.00D-09 XBig12= 2.08D-15 1.32D-09.
     10 vectors produced by pass 58 Test12= 6.35D-14 1.00D-09 XBig12= 3.56D-15 2.08D-09.
     10 vectors produced by pass 59 Test12= 6.35D-14 1.00D-09 XBig12= 6.12D-15 2.46D-09.
     10 vectors produced by pass 60 Test12= 6.35D-14 1.00D-09 XBig12= 3.92D-15 2.01D-09.
     10 vectors produced by pass 61 Test12= 6.35D-14 1.00D-09 XBig12= 6.56D-15 2.63D-09.
      8 vectors produced by pass 62 Test12= 6.35D-14 1.00D-09 XBig12= 1.81D-15 1.48D-09.
      8 vectors produced by pass 63 Test12= 6.35D-14 1.00D-09 XBig12= 5.12D-15 2.67D-09.
      8 vectors produced by pass 64 Test12= 6.35D-14 1.00D-09 XBig12= 3.72D-15 1.93D-09.
      8 vectors produced by pass 65 Test12= 6.35D-14 1.00D-09 XBig12= 6.35D-15 2.37D-09.
      8 vectors produced by pass 66 Test12= 6.35D-14 1.00D-09 XBig12= 5.64D-15 2.36D-09.
      8 vectors produced by pass 67 Test12= 6.35D-14 1.00D-09 XBig12= 9.16D-15 2.87D-09.
      8 vectors produced by pass 68 Test12= 6.35D-14 1.00D-09 XBig12= 2.83D-15 1.78D-09.
      8 vectors produced by pass 69 Test12= 6.35D-14 1.00D-09 XBig12= 3.65D-15 2.16D-09.
      8 vectors produced by pass 70 Test12= 6.35D-14 1.00D-09 XBig12= 4.43D-15 2.31D-09.
      8 vectors produced by pass 71 Test12= 6.35D-14 1.00D-09 XBig12= 9.39D-15 3.22D-09.
      8 vectors produced by pass 72 Test12= 6.35D-14 1.00D-09 XBig12= 1.99D-15 1.39D-09.
      8 vectors produced by pass 73 Test12= 6.35D-14 1.00D-09 XBig12= 2.81D-15 1.83D-09.
      8 vectors produced by pass 74 Test12= 6.35D-14 1.00D-09 XBig12= 2.77D-15 1.77D-09.
      8 vectors produced by pass 75 Test12= 6.35D-14 1.00D-09 XBig12= 4.39D-15 2.24D-09.
      8 vectors produced by pass 76 Test12= 6.35D-14 1.00D-09 XBig12= 5.43D-15 2.41D-09.
      8 vectors produced by pass 77 Test12= 6.35D-14 1.00D-09 XBig12= 2.93D-15 2.02D-09.
      8 vectors produced by pass 78 Test12= 6.35D-14 1.00D-09 XBig12= 2.71D-15 1.61D-09.
      8 vectors produced by pass 79 Test12= 6.35D-14 1.00D-09 XBig12= 2.84D-15 1.69D-09.
      8 vectors produced by pass 80 Test12= 6.35D-14 1.00D-09 XBig12= 1.88D-15 1.46D-09.
      8 vectors produced by pass 81 Test12= 6.35D-14 1.00D-09 XBig12= 1.85D-15 1.65D-09.
      4 vectors produced by pass 82 Test12= 6.35D-14 1.00D-09 XBig12= 1.16D-15 1.04D-09.
      1 vectors produced by pass 83 Test12= 6.35D-14 1.00D-09 XBig12= 1.01D-15 1.05D-09.
 InvSVY:  IOpt=1 It=  1 EMax= 3.91D-14
 Solved reduced A of dimension  3423 with   198 vectors.
 Isotropic polarizability for W=    0.000000      346.06 Bohr**3.
 End of Minotr F.D. properties file   721 does not exist.
 End of Minotr F.D. properties file   722 does not exist.
 End of Minotr F.D. properties file   788 does not exist.

 **********************************************************************

            Population analysis using the SCF density.

 **********************************************************************

 Orbital symmetries:
       Occupied  (A) (A) (A) (A) (A) (A) (A) (A) (A) (A) (A) (A)
                 (A) (A) (A) (A) (A) (A) (A) (A) (A) (A) (A) (A)
                 (A) (A) (A) (A) (A) (A) (A) (A) (A) (A) (A) (A)
                 (A) (A) (A) (A) (A) (A) (A) (A) (A) (A) (A) (A)
                 (A) (A) (A) (A) (A) (A) (A) (A) (A) (A) (A) (A)
                 (A) (A) (A) (A) (A) (A) (A) (A) (A) (A) (A) (A)
                 (A) (A) (A) (A) (A) (A) (A) (A) (A) (A) (A) (A)
                 (A) (A) (A) (A) (A) (A) (A) (A) (A) (A) (A) (A)
                 (A) (A) (A) (A) (A) (A) (A) (A) (A) (A) (A) (A)
                 (A) (A) (A) (A) (A) (A) (A) (A) (A) (A) (A) (A)
                 (A) (A) (A) (A) (A)
       Virtual   (A) (A) (A) (A) (A) (A) (A) (A) (A) (A) (A) (A)
                 (A) (A) (A) (A) (A) (A) (A) (A) (A) (A) (A) (A)
                 (A) (A) (A) (A) (A) (A) (A) (A) (A) (A) (A) (A)
                 (A) (A) (A) (A) (A) (A) (A) (A) (A) (A) (A) (A)
                 (A) (A) (A) (A) (A) (A) (A) (A) (A) (A) (A) (A)
                 (A) (A) (A) (A) (A) (A) (A) (A) (A) (A) (A) (A)
                 (A) (A) (A) (A) (A) (A) (A) (A) (A) (A) (A) (A)
                 (A) (A) (A) (A) (A) (A) (A) (A) (A) (A) (A) (A)
                 (A) (A) (A) (A) (A) (A) (A) (A) (A) (A) (A) (A)
                 (A) (A) (A) (A) (A) (A) (A) (A) (A) (A) (A) (A)
                 (A) (A) (A) (A) (A) (A) (A) (A) (A) (A) (A) (A)
                 (A) (A) (A) (A) (A) (A) (A) (A) (A) (A) (A) (A)
                 (A) (A) (A) (A) (A) (A) (A) (A) (A) (A) (A) (A)
                 (A) (A) (A) (A) (A) (A) (A) (A) (A) (A) (A) (A)
                 (A) (A) (A) (A) (A) (A) (A) (A) (A) (A) (A) (A)
                 (A) (A) (A) (A) (A) (A) (A) (A) (A) (A) (A) (A)
                 (A) (A) (A) (A) (A) (A) (A) (A) (A) (A) (A) (A)
                 (A) (A) (A) (A) (A) (A) (A) (A) (A) (A) (A) (A)
                 (A) (A) (A) (A) (A) (A) (A) (A) (A) (A) (A) (A)
                 (A) (A) (A) (A) (A) (A) (A) (A) (A) (A) (A) (A)
                 (A) (A) (A) (A) (A) (A) (A) (A) (A) (A) (A) (A)
                 (A) (A) (A) (A) (A) (A) (A) (A) (A) (A) (A) (A)
                 (A) (A) (A) (A) (A) (A) (A) (A) (A) (A) (A) (A)
                 (A) (A) (A) (A) (A) (A) (A) (A) (A) (A) (A) (A)
                 (A) (A) (A) (A) (A) (A) (A) (A) (A) (A) (A) (A)
                 (A) (A) (A) (A) (A) (A) (A) (A) (A) (A) (A) (A)
                 (A) (A) (A) (A) (A) (A) (A) (A) (A) (A) (A) (A)
                 (A) (A) (A) (A) (A) (A) (A) (A) (A) (A) (A) (A)
                 (A) (A) (A) (A) (A) (A) (A) (A) (A) (A) (A) (A)
                 (A) (A) (A) (A) (A) (A) (A) (A) (A) (A) (A) (A)
                 (A) (A) (A) (A) (A) (A) (A) (A) (A) (A) (A) (A)
                 (A) (A) (A) (A) (A) (A) (A) (A) (A) (A) (A) (A)
                 (A) (A) (A) (A) (A) (A) (A) (A) (A) (A) (A) (A)
                 (A) (A) (A) (A) (A) (A) (A) (A) (A) (A) (A) (A)
                 (A) (A) (A) (A) (A) (A) (A) (A) (A) (A) (A) (A)
                 (A) (A) (A) (A) (A) (A) (A) (A) (A) (A) (A) (A)
                 (A) (A) (A) (A) (A) (A) (A) (A) (A) (A) (A) (A)
                 (A) (A) (A) (A) (A) (A) (A) (A) (A) (A) (A) (A)
                 (A) (A) (A) (A) (A) (A) (A) (A) (A) (A) (A) (A)
                 (A) (A) (A) (A) (A) (A) (A) (A) (A) (A) (A) (A)
                 (A) (A) (A) (A) (A) (A) (A) (A) (A) (A) (A) (A)
                 (A) (A) (A) (A) (A) (A) (A) (A) (A) (A) (A) (A)
                 (A) (A) (A) (A)
 The electronic state is 1-A.
 Alpha  occ. eigenvalues -- -101.84968 -19.41541 -19.34267 -19.32255 -14.58427
 Alpha  occ. eigenvalues --  -14.54935 -10.49733 -10.49350 -10.45499 -10.44363
 Alpha  occ. eigenvalues --  -10.43380 -10.42229 -10.41677 -10.41484 -10.41205
 Alpha  occ. eigenvalues --  -10.41187 -10.41091 -10.40836 -10.40227 -10.37825
 Alpha  occ. eigenvalues --  -10.37458 -10.36939 -10.36472 -10.36030 -10.35612
 Alpha  occ. eigenvalues --  -10.35494 -10.34374 -10.33446 -10.33358 -10.32873
 Alpha  occ. eigenvalues --   -9.72251  -7.43502  -7.42486  -7.42426  -3.46368
 Alpha  occ. eigenvalues --   -2.20718  -2.20475  -2.17496  -1.26789  -1.16165
 Alpha  occ. eigenvalues --   -1.16101  -1.13549  -1.07124  -1.01834  -0.97678
 Alpha  occ. eigenvalues --   -0.97107  -0.95866  -0.95604  -0.92280  -0.90056
 Alpha  occ. eigenvalues --   -0.87865  -0.87406  -0.85064  -0.81940  -0.81379
 Alpha  occ. eigenvalues --   -0.80213  -0.80021  -0.79311  -0.78973  -0.77257
 Alpha  occ. eigenvalues --   -0.76574  -0.72581  -0.72532  -0.71047  -0.68756
 Alpha  occ. eigenvalues --   -0.66998  -0.65847  -0.65627  -0.64863  -0.64627
 Alpha  occ. eigenvalues --   -0.63362  -0.61872  -0.60772  -0.60683  -0.59906
 Alpha  occ. eigenvalues --   -0.59527  -0.59325  -0.58950  -0.58105  -0.57535
 Alpha  occ. eigenvalues --   -0.56735  -0.56440  -0.56218  -0.55993  -0.55404
 Alpha  occ. eigenvalues --   -0.54562  -0.53768  -0.53410  -0.53310  -0.52895
 Alpha  occ. eigenvalues --   -0.52276  -0.52239  -0.51963  -0.51617  -0.51114
 Alpha  occ. eigenvalues --   -0.50748  -0.50616  -0.50036  -0.49584  -0.49270
 Alpha  occ. eigenvalues --   -0.48606  -0.48427  -0.47953  -0.47786  -0.47577
 Alpha  occ. eigenvalues --   -0.47112  -0.46698  -0.46559  -0.46376  -0.45394
 Alpha  occ. eigenvalues --   -0.45156  -0.45015  -0.44115  -0.43613  -0.43556
 Alpha  occ. eigenvalues --   -0.43106  -0.41510  -0.40930  -0.40171  -0.39891
 Alpha  occ. eigenvalues --   -0.39614  -0.38177  -0.37552  -0.36069  -0.35586
 Alpha virt. eigenvalues --   -0.19884  -0.19002  -0.17038  -0.16346  -0.13139
 Alpha virt. eigenvalues --   -0.12084  -0.11752  -0.11441  -0.10527  -0.10383
 Alpha virt. eigenvalues --   -0.10078  -0.09941  -0.09468  -0.09273  -0.08752
 Alpha virt. eigenvalues --   -0.08553  -0.08490  -0.08231  -0.07980  -0.07534
 Alpha virt. eigenvalues --   -0.07407  -0.06993  -0.06780  -0.06258  -0.05895
 Alpha virt. eigenvalues --   -0.05602  -0.05485  -0.05267  -0.04785  -0.04665
 Alpha virt. eigenvalues --   -0.04460  -0.04290  -0.04057  -0.03804  -0.03597
 Alpha virt. eigenvalues --   -0.03173  -0.02746  -0.02684  -0.02544  -0.02325
 Alpha virt. eigenvalues --   -0.02017  -0.01931  -0.01647  -0.01251  -0.01180
 Alpha virt. eigenvalues --   -0.01011  -0.00483  -0.00473  -0.00060   0.00387
 Alpha virt. eigenvalues --    0.00483   0.00643   0.00822   0.00957   0.01133
 Alpha virt. eigenvalues --    0.01506   0.01629   0.02055   0.02490   0.02755
 Alpha virt. eigenvalues --    0.03038   0.03283   0.03471   0.03737   0.03816
 Alpha virt. eigenvalues --    0.03979   0.04084   0.04389   0.04620   0.04849
 Alpha virt. eigenvalues --    0.05041   0.05117   0.05341   0.05566   0.05798
 Alpha virt. eigenvalues --    0.06323   0.06630   0.06733   0.06847   0.07097
 Alpha virt. eigenvalues --    0.07473   0.07667   0.07814   0.07994   0.08134
 Alpha virt. eigenvalues --    0.08467   0.08605   0.08864   0.09096   0.09232
 Alpha virt. eigenvalues --    0.09364   0.09710   0.09852   0.10034   0.10178
 Alpha virt. eigenvalues --    0.10366   0.10482   0.10612   0.10834   0.10998
 Alpha virt. eigenvalues --    0.11164   0.11548   0.11729   0.12045   0.12318
 Alpha virt. eigenvalues --    0.12461   0.12588   0.12896   0.12913   0.12996
 Alpha virt. eigenvalues --    0.13477   0.13692   0.13779   0.13929   0.14094
 Alpha virt. eigenvalues --    0.14151   0.14637   0.14877   0.14956   0.14989
 Alpha virt. eigenvalues --    0.15202   0.15519   0.15797   0.15890   0.16418
 Alpha virt. eigenvalues --    0.16490   0.16541   0.16927   0.17128   0.17188
 Alpha virt. eigenvalues --    0.17503   0.17698   0.18135   0.18398   0.18517
 Alpha virt. eigenvalues --    0.18819   0.19122   0.19280   0.19611   0.19939
 Alpha virt. eigenvalues --    0.19978   0.20351   0.20909   0.21170   0.21343
 Alpha virt. eigenvalues --    0.21617   0.22264   0.22397   0.22716   0.23088
 Alpha virt. eigenvalues --    0.23341   0.23509   0.23914   0.23962   0.24291
 Alpha virt. eigenvalues --    0.24603   0.24809   0.25139   0.25770   0.25901
 Alpha virt. eigenvalues --    0.26043   0.26198   0.26586   0.27210   0.27633
 Alpha virt. eigenvalues --    0.27814   0.27912   0.28608   0.29146   0.29601
 Alpha virt. eigenvalues --    0.30140   0.30242   0.30295   0.30910   0.31342
 Alpha virt. eigenvalues --    0.32046   0.32421   0.32936   0.33364   0.33798
 Alpha virt. eigenvalues --    0.34215   0.34538   0.35022   0.35583   0.35702
 Alpha virt. eigenvalues --    0.36657   0.36996   0.37518   0.38337   0.39952
 Alpha virt. eigenvalues --    0.40554   0.41291   0.42250   0.43049   0.44311
 Alpha virt. eigenvalues --    0.44725   0.46177   0.48333   0.49717   0.53693
 Alpha virt. eigenvalues --    0.54254   0.54553   0.55308   0.56055   0.56279
 Alpha virt. eigenvalues --    0.57309   0.57578   0.58273   0.58335   0.59483
 Alpha virt. eigenvalues --    0.59753   0.60326   0.60989   0.61191   0.61681
 Alpha virt. eigenvalues --    0.61921   0.62417   0.63071   0.63314   0.63558
 Alpha virt. eigenvalues --    0.64135   0.64282   0.64866   0.65040   0.65863
 Alpha virt. eigenvalues --    0.66433   0.66641   0.67162   0.67388   0.67758
 Alpha virt. eigenvalues --    0.68116   0.68844   0.69488   0.69735   0.70033
 Alpha virt. eigenvalues --    0.70249   0.70584   0.71522   0.71784   0.71997
 Alpha virt. eigenvalues --    0.72712   0.73569   0.73808   0.74616   0.75093
 Alpha virt. eigenvalues --    0.75738   0.76073   0.76311   0.76866   0.77199
 Alpha virt. eigenvalues --    0.77881   0.78234   0.78979   0.79196   0.79513
 Alpha virt. eigenvalues --    0.80561   0.81226   0.81326   0.81805   0.82239
 Alpha virt. eigenvalues --    0.82259   0.82931   0.83521   0.83806   0.84141
 Alpha virt. eigenvalues --    0.84567   0.85707   0.86002   0.86578   0.87159
 Alpha virt. eigenvalues --    0.87856   0.88284   0.88740   0.89989   0.90421
 Alpha virt. eigenvalues --    0.90889   0.91638   0.91837   0.92316   0.92462
 Alpha virt. eigenvalues --    0.93387   0.94055   0.94570   0.95059   0.95347
 Alpha virt. eigenvalues --    0.95902   0.96177   0.96499   0.97345   0.98188
 Alpha virt. eigenvalues --    0.98628   0.98941   0.99506   1.00354   1.00528
 Alpha virt. eigenvalues --    1.00954   1.01370   1.01752   1.02627   1.03110
 Alpha virt. eigenvalues --    1.03786   1.04081   1.04334   1.05424   1.05721
 Alpha virt. eigenvalues --    1.06351   1.07090   1.07588   1.07801   1.08639
 Alpha virt. eigenvalues --    1.09067   1.09815   1.10496   1.11048   1.11683
 Alpha virt. eigenvalues --    1.12009   1.12690   1.13570   1.14271   1.15120
 Alpha virt. eigenvalues --    1.15222   1.16246   1.16514   1.18193   1.18672
 Alpha virt. eigenvalues --    1.20821   1.20857   1.21804   1.22525   1.23446
 Alpha virt. eigenvalues --    1.23625   1.24181   1.24808   1.26261   1.27143
 Alpha virt. eigenvalues --    1.27613   1.28522   1.28987   1.30182   1.30624
 Alpha virt. eigenvalues --    1.30958   1.31331   1.32793   1.34133   1.35349
 Alpha virt. eigenvalues --    1.36143   1.36572   1.37005   1.38321   1.38916
 Alpha virt. eigenvalues --    1.39280   1.40606   1.41438   1.41975   1.43936
 Alpha virt. eigenvalues --    1.44177   1.45392   1.46173   1.46851   1.47454
 Alpha virt. eigenvalues --    1.48801   1.50318   1.51165   1.51941   1.53509
 Alpha virt. eigenvalues --    1.54312   1.56003   1.57199   1.58571   1.59618
 Alpha virt. eigenvalues --    1.60635   1.61311   1.62088   1.62680   1.64176
 Alpha virt. eigenvalues --    1.65651   1.66934   1.67974   1.68476   1.69108
 Alpha virt. eigenvalues --    1.69713   1.70580   1.71412   1.72288   1.72531
 Alpha virt. eigenvalues --    1.73339   1.73542   1.74612   1.75195   1.75944
 Alpha virt. eigenvalues --    1.77021   1.77402   1.78004   1.78658   1.79201
 Alpha virt. eigenvalues --    1.79682   1.81124   1.81526   1.82592   1.82926
 Alpha virt. eigenvalues --    1.83613   1.83725   1.85260   1.85799   1.86604
 Alpha virt. eigenvalues --    1.87482   1.88402   1.88851   1.90664   1.91117
 Alpha virt. eigenvalues --    1.92336   1.93003   1.93139   1.93826   1.94367
 Alpha virt. eigenvalues --    1.95498   1.96028   1.96692   1.98172   1.98897
 Alpha virt. eigenvalues --    2.00080   2.00596   2.01746   2.01897   2.02642
 Alpha virt. eigenvalues --    2.03474   2.03942   2.04872   2.05327   2.05965
 Alpha virt. eigenvalues --    2.07116   2.07964   2.08509   2.10024   2.10153
 Alpha virt. eigenvalues --    2.10718   2.11514   2.11934   2.12364   2.13419
 Alpha virt. eigenvalues --    2.13654   2.14063   2.14486   2.15470   2.16043
 Alpha virt. eigenvalues --    2.16475   2.17023   2.18120   2.18695   2.19316
 Alpha virt. eigenvalues --    2.19483   2.21253   2.21974   2.23507   2.25206
 Alpha virt. eigenvalues --    2.25618   2.27060   2.27401   2.28407   2.29088
 Alpha virt. eigenvalues --    2.30634   2.33097   2.35370   2.36968   2.37658
 Alpha virt. eigenvalues --    2.38539   2.39623   2.40129   2.40611   2.43324
 Alpha virt. eigenvalues --    2.43717   2.44504   2.45744   2.47053   2.47907
 Alpha virt. eigenvalues --    2.50083   2.50837   2.52331   2.53197   2.54668
 Alpha virt. eigenvalues --    2.57467   2.58554   2.59413   2.60945   2.63160
 Alpha virt. eigenvalues --    2.64858   2.67229   2.69812   2.70236   2.70908
 Alpha virt. eigenvalues --    2.71747   2.73154   2.74079   2.75779   2.76981
 Alpha virt. eigenvalues --    2.80163   2.81231   2.83154   2.86629   2.89204
 Alpha virt. eigenvalues --    2.93423   2.97179   3.00024   3.04119   3.13640
 Alpha virt. eigenvalues --    3.16500   3.26564  20.60664
          Condensed to atoms (all electrons):
 Mulliken charges:
               1
     1  C   -0.106546
     2  C   -0.356532
     3  C   -0.264702
     4  C   -0.099075
     5  H    0.253966
     6  C   -0.287323
     7  N    0.192513
     8  H    0.250584
     9  H    0.262385
    10  Cl   0.434856
    11  C   -0.071306
    12  O   -0.229069
    13  N    0.090213
    14  C   -0.157529
    15  H    0.239115
    16  H    0.235127
    17  C   -0.379632
    18  C   -0.642298
    19  H    0.232003
    20  Pd  -0.396515
    21  C   -0.183944
    22  C    0.205355
    23  C    0.432794
    24  C   -0.920578
    25  C   -0.435634
    26  H    0.242244
    27  H    0.220806
    28  C   -0.174971
    29  H    0.227797
    30  H    0.233117
    31  C   -0.360692
    32  C   -0.683280
    33  C    0.271429
    34  H    0.186744
    35  H    0.199162
    36  H    0.260938
    37  C   -0.532806
    38  O   -0.306082
    39  C   -0.168603
    40  H    0.275607
    41  H    0.256904
    42  H    0.229114
    43  H    0.233682
    44  H    0.226260
    45  H    0.224853
    46  C   -0.630883
    47  H    0.274557
    48  H    0.247276
    49  H    0.236100
    50  O   -0.632955
    51  H    0.530822
    52  H    0.276082
    53  H    0.265892
    54  C   -0.260942
    55  H    0.240149
    56  H    0.229533
    57  H    0.222372
    58  C   -0.338891
    59  H    0.240549
    60  H    0.242414
    61  H    0.215238
    62  C   -0.404046
    63  H    0.234696
    64  H    0.233417
    65  H    0.218172
 Sum of Mulliken charges =   1.00000
 Mulliken charges with hydrogens summed into heavy atoms:
               1
     1  C   -0.106546
     2  C   -0.094147
     3  C   -0.014118
     4  C    0.154891
     6  C   -0.287323
     7  N    0.192513
    10  Cl   0.434856
    11  C   -0.071306
    12  O   -0.229069
    13  N    0.090213
    14  C    0.316712
    17  C   -0.147629
    18  C   -0.642298
    20  Pd  -0.396515
    21  C    0.310677
    22  C    0.205355
    23  C    0.899891
    24  C   -0.920578
    25  C    0.011432
    28  C    0.562025
    31  C   -0.360692
    32  C   -0.417388
    33  C    0.657335
    37  C   -0.532806
    38  O   -0.306082
    39  C    0.593022
    46  C    0.127049
    50  O   -0.102133
    54  C    0.431112
    58  C    0.359310
    62  C    0.282239
 APT charges:
               1
     1  C    0.126427
     2  C   -0.166838
     3  C    0.195260
     4  C   -0.162628
     5  H    0.089395
     6  C    0.522117
     7  N   -0.456845
     8  H    0.072768
     9  H    0.102337
    10  Cl  -0.275609
    11  C    0.934058
    12  O   -0.767250
    13  N   -0.706841
    14  C    0.320228
    15  H    0.032374
    16  H   -0.003041
    17  C    0.204731
    18  C    0.103478
    19  H   -0.027108
    20  Pd   0.167839
    21  C   -0.040193
    22  C   -0.425858
    23  C   -0.069439
    24  C    0.380088
    25  C    0.103924
    26  H   -0.026182
    27  H   -0.014679
    28  C   -0.106002
    29  H    0.028027
    30  H    0.021183
    31  C    0.275066
    32  C    0.200076
    33  C    0.501917
    34  H   -0.037583
    35  H   -0.051957
    36  H    0.019588
    37  C    1.019841
    38  O   -0.823671
    39  C   -0.027066
    40  H    0.063762
    41  H    0.020439
    42  H    0.010673
    43  H    0.003951
    44  H   -0.023477
    45  H    0.006703
    46  C   -0.037677
    47  H    0.033459
    48  H    0.028257
    49  H    0.035356
    50  O   -0.705732
    51  H    0.291664
    52  H    0.027433
    53  H    0.010200
    54  C   -0.007425
    55  H    0.010222
    56  H   -0.006386
    57  H   -0.002459
    58  C    0.006531
    59  H    0.002903
    60  H    0.004218
    61  H    0.000109
    62  C   -0.003717
    63  H   -0.003635
    64  H    0.000505
    65  H    0.002191
 Sum of APT charges =   1.00000
 APT charges with hydrogens summed into heavy atoms:
               1
     1  C    0.126427
     2  C   -0.064501
     3  C    0.268028
     4  C   -0.073234
     6  C    0.522117
     7  N   -0.456845
    10  Cl  -0.275609
    11  C    0.934058
    12  O   -0.767250
    13  N   -0.706841
    14  C    0.349562
    17  C    0.177624
    18  C    0.103478
    20  Pd   0.167839
    21  C   -0.016654
    22  C   -0.425858
    23  C   -0.088918
    24  C    0.380088
    25  C    0.065767
    28  C   -0.029359
    31  C    0.275066
    32  C    0.210276
    33  C    0.412378
    37  C    1.019841
    38  O   -0.823671
    39  C    0.067808
    46  C    0.059396
    50  O   -0.414068
    54  C   -0.006049
    58  C    0.013762
    62  C   -0.004656
 Electronic spatial extent (au):  <R**2>=          13042.9977
 Charge=              1.0000 electrons
 Dipole moment (field-independent basis, Debye):
    X=              5.2359    Y=              2.5957    Z=             -3.5713  Tot=              6.8489
 Quadrupole moment (field-independent basis, Debye-Ang):
   XX=           -168.1021   YY=           -159.4373   ZZ=           -185.4703
   XY=              2.1625   XZ=              8.2073   YZ=             -6.4074
 Traceless Quadrupole moment (field-independent basis, Debye-Ang):
   XX=              2.9012   YY=             11.5659   ZZ=            -14.4671
   XY=              2.1625   XZ=              8.2073   YZ=             -6.4074
 Octapole moment (field-independent basis, Debye-Ang**2):
  XXX=            258.9647  YYY=            -10.1488  ZZZ=             19.5120  XYY=             43.6649
  XXY=             82.6612  XXZ=            -59.3676  XZZ=             10.2674  YZZ=            -36.2262
  YYZ=             -5.3358  XYZ=            -60.3695
 Hexadecapole moment (field-independent basis, Debye-Ang**3):
 XXXX=          -7987.8356 YYYY=          -6212.1529 ZZZZ=          -2051.6918 XXXY=            143.0490
 XXXZ=            194.9144 YYYX=            -37.7941 YYYZ=           -202.3733 ZZZX=             77.8795
 ZZZY=            -98.2389 XXYY=          -2105.3132 XXZZ=          -1626.5908 YYZZ=          -1246.4441
 XXYZ=           -106.8538 YYXZ=             11.3005 ZZXY=            -85.1476
 N-N= 3.969142833402D+03 E-N=-1.222478971153D+04  KE= 1.766342140193D+03
  Exact polarizability: 422.376  -1.235 345.903  -9.363 -20.593 269.916
 Approx polarizability: 611.992  -2.221 501.541 -21.972 -52.104 426.915
   1 Symmetry operations used in ECPInt.
 ECPInt:  NShTT=   25878 NPrTT=  135610 LenC2=   23148 LenP2D=   72189.
 LDataN:  DoStor=T MaxTD1= 7 Len=  274
 Calling FoFJK, ICntrl=    100127 FMM=F ISym2X=0 I1Cent= 0 IOpClX= 0 NMat=1 NMatS=1 NMatT=0.
 Defaulting to unpruned grid for atomic number  46.
 Defaulting to unpruned grid for atomic number  46.
 Defaulting to unpruned grid for atomic number  46.
 Defaulting to unpruned grid for atomic number  46.
 Defaulting to unpruned grid for atomic number  46.
 Defaulting to unpruned grid for atomic number  46.
 Defaulting to unpruned grid for atomic number  46.
 Defaulting to unpruned grid for atomic number  46.
 Defaulting to unpruned grid for atomic number  46.
 Defaulting to unpruned grid for atomic number  46.
 Defaulting to unpruned grid for atomic number  46.
 Defaulting to unpruned grid for atomic number  46.
 Defaulting to unpruned grid for atomic number  46.
 Defaulting to unpruned grid for atomic number  46.
 Defaulting to unpruned grid for atomic number  46.
 Defaulting to unpruned grid for atomic number  46.
 Defaulting to unpruned grid for atomic number  46.
 Defaulting to unpruned grid for atomic number  46.
 Defaulting to unpruned grid for atomic number  46.
 Defaulting to unpruned grid for atomic number  46.
 Defaulting to unpruned grid for atomic number  46.
 Defaulting to unpruned grid for atomic number  46.
 Defaulting to unpruned grid for atomic number  46.
 Defaulting to unpruned grid for atomic number  46.
 Defaulting to unpruned grid for atomic number  46.
 Defaulting to unpruned grid for atomic number  46.
 Defaulting to unpruned grid for atomic number  46.
 Defaulting to unpruned grid for atomic number  46.
 Full mass-weighted force constant matrix:
 Low frequencies --- -241.0194   -0.0022   -0.0017   -0.0009    5.5591   11.9614
 Low frequencies ---   14.8588   28.9314   37.2975
 ******    1 imaginary frequencies (negative Signs) ****** 
 Diagonal vibrational polarizability:
      120.2570580      94.5167584      40.3215080
 Harmonic frequencies (cm**-1), IR intensities (KM/Mole), Raman scattering
 activities (A**4/AMU), depolarization ratios for plane and unpolarized
 incident light, reduced masses (AMU), force constants (mDyne/A),
 and normal coordinates:
                           1         2         3         4         5
                           A         A         A         A         A
       Frequencies ---  -241.0181   28.7378   36.6628   43.3584   47.2695
    Reduced masses ---     8.2138    5.7390    5.4879    5.6055    6.2857
   Force constants ---     0.2811    0.0028    0.0043    0.0062    0.0083
    IR Intensities ---     6.4700    0.2434    1.1552    2.1347    0.8103
 Coord Atom Element:
   1     1     6          0.01715   0.02537   0.01243  -0.01646  -0.04618
   2     1     6         -0.00134  -0.00503   0.04892  -0.00347  -0.03035
   3     1     6          0.00274   0.02229   0.04624   0.04611  -0.05807
   1     2     6          0.00910   0.05095   0.00375  -0.03642  -0.03988
   2     2     6          0.00079  -0.00581   0.11911   0.03676  -0.04174
   3     2     6         -0.00360   0.05664   0.14769   0.08358  -0.06539
   1     3     6          0.01000   0.04564   0.00391  -0.03362  -0.04176
   2     3     6          0.00461  -0.01175   0.15141   0.07069  -0.01669
   3     3     6         -0.00377   0.10629   0.18221   0.09259  -0.00416
   1     4     6          0.01584   0.01345   0.00989  -0.01221  -0.05182
   2     4     6          0.00729  -0.01646   0.10022   0.05178   0.02651
   3     4     6         -0.00395   0.12050   0.10499   0.05119   0.06511
   1     5     1          0.01705   0.00633   0.00866  -0.00948  -0.05645
   2     5     1          0.00997  -0.02234   0.11216   0.06821   0.05665
   3     5     1         -0.00935   0.15949   0.12201   0.04764   0.11822
   1     6     6          0.01761  -0.01036   0.01844   0.00694  -0.05843
   2     6     6          0.00992  -0.01518   0.02635   0.00567   0.03206
   3     6     6          0.00308   0.08297  -0.00067   0.00847   0.06313
   1     7     7          0.02152  -0.00433   0.02005   0.00498  -0.05044
   2     7     7          0.00907  -0.01079   0.00762  -0.01381   0.00151
   3     7     7          0.01132   0.03365  -0.02444   0.01510  -0.00311
   1     8     1          0.00717   0.06497  -0.00186  -0.04832  -0.03567
   2     8     1          0.00555  -0.01274   0.20806   0.10524  -0.02405
   3     8     1         -0.00651   0.13385   0.26371   0.12544  -0.00681
   1     9     1          0.00691   0.07397  -0.00496  -0.05527  -0.03124
   2     9     1         -0.00236  -0.00103   0.14708   0.04055  -0.06610
   3     9     1         -0.00679   0.04512   0.19921   0.10523  -0.11157
   1    10    17          0.01560  -0.05005   0.02920   0.03751  -0.09811
   2    10    17          0.00840  -0.01989  -0.05534  -0.03927   0.08980
   3    10    17          0.00613   0.10124  -0.10763  -0.06581   0.15791
   1    11     6          0.01792   0.02636   0.00884  -0.02080  -0.04822
   2    11     6         -0.01357   0.00568   0.01418  -0.03914  -0.04763
   3    11     6          0.00337  -0.02560   0.01486   0.03137  -0.06588
   1    12     8          0.00645   0.05614  -0.00529  -0.04969  -0.07996
   2    12     8         -0.01839   0.01080   0.00356  -0.08803  -0.06925
   3    12     8          0.01109  -0.04254   0.00700  -0.03657  -0.07756
   1    13     7          0.02455  -0.00020   0.01560  -0.00158  -0.01952
   2    13     7         -0.02558   0.01495  -0.00580  -0.02871  -0.04321
   3    13     7          0.00369  -0.04842  -0.00239   0.07192  -0.02239
   1    14     6          0.00630   0.05210  -0.00377  -0.04653  -0.07741
   2    14     6         -0.02793   0.02632  -0.03828  -0.13262  -0.08230
   3    14     6          0.00891  -0.08650  -0.03088  -0.04828  -0.01158
   1    15     1          0.00138   0.05332  -0.04114  -0.08511  -0.07560
   2    15     1         -0.03211   0.03233  -0.04711  -0.13010  -0.07673
   3    15     1          0.01552  -0.10666  -0.05652  -0.11725  -0.02878
   1    16     1          0.00909   0.08056   0.03311  -0.02153  -0.11563
   2    16     1         -0.02136   0.02204  -0.06443  -0.20938  -0.12113
   3    16     1          0.00619  -0.09553  -0.03699  -0.03579   0.01323
   1    17     6          0.01193   0.00914   0.00367  -0.02046  -0.01871
   2    17     6         -0.02853   0.03573  -0.02819  -0.06885  -0.04928
   3    17     6          0.00894  -0.08534  -0.02096   0.02115   0.03344
   1    18     6          0.00713  -0.01774  -0.01655  -0.04274   0.07876
   2    18     6         -0.01023   0.04828  -0.01005   0.01902  -0.01045
   3    18     6          0.00252  -0.09806  -0.03239  -0.01592   0.05113
   1    19     1          0.02468   0.00291   0.02018   0.00889  -0.03852
   2    19     1         -0.04187   0.04931  -0.04635  -0.11983  -0.06120
   3    19     1          0.01792  -0.10239  -0.01637   0.07108   0.10681
   1    20    46         -0.06690  -0.00944   0.02938   0.00925   0.01648
   2    20    46         -0.03645   0.00523  -0.00527  -0.03072  -0.02072
   3    20    46         -0.02803  -0.01835  -0.04697   0.02765  -0.03539
   1    21     6         -0.06050  -0.06891  -0.00838   0.02334   0.00342
   2    21     6         -0.01387  -0.03966  -0.02097   0.06692   0.02939
   3    21     6         -0.00891   0.15462   0.04509  -0.03078   0.01260
   1    22     6         -0.05960   0.02512   0.02451  -0.00428   0.03131
   2    22     6          0.09128  -0.02419   0.01759   0.05953   0.00879
   3    22     6         -0.00158   0.07204   0.02562  -0.00345  -0.01630
   1    23     6         -0.07327  -0.08871  -0.01342   0.02767  -0.00700
   2    23     6          0.17643  -0.00256  -0.01668  -0.00803  -0.00740
   3    23     6         -0.02337   0.04207   0.00396  -0.00907  -0.03039
   1    24     6         -0.15217  -0.01870   0.00781   0.00810   0.01668
   2    24     6          0.47937  -0.01008   0.01340   0.00304  -0.01404
   3    24     6          0.03478   0.02708   0.00734  -0.00287  -0.03691
   1    25     6         -0.03276  -0.10509  -0.02097   0.01941  -0.02016
   2    25     6          0.03179  -0.01453  -0.02470   0.01420  -0.00129
   3    25     6          0.00435   0.10088   0.03250  -0.00841   0.00190
   1    26     1         -0.08987  -0.10499  -0.01214   0.04979  -0.00372
   2    26     1          0.15763  -0.00148  -0.01929  -0.01111  -0.00762
   3    26     1         -0.24477   0.04780  -0.02136  -0.02336  -0.02980
   1    27     1          0.05298  -0.09417  -0.01840  -0.00701  -0.03175
   2    27     1          0.02949  -0.01421  -0.02509   0.01320  -0.00231
   3    27     1          0.05200   0.09078   0.04174   0.02053   0.02458
   1    28     6          0.14310   0.00196  -0.00810  -0.03065   0.06911
   2    28     6         -0.02086   0.06944  -0.07978  -0.03123   0.00971
   3    28     6         -0.00560  -0.06034  -0.05343  -0.02376   0.00328
   1    29     1          0.09764  -0.00258   0.00149  -0.01775   0.04296
   2    29     1          0.06777   0.06217  -0.06170  -0.05439   0.03931
   3    29     1         -0.03374  -0.03427  -0.10953  -0.02085   0.03005
   1    30     1          0.07814  -0.00089  -0.03123  -0.03841   0.09166
   2    30     1         -0.03623   0.10917  -0.13172  -0.00046  -0.00814
   3    30     1          0.01055  -0.04190  -0.06804  -0.00764  -0.01204
   1    31     6          0.15542   0.00152   0.01982  -0.01531   0.03521
   2    31     6         -0.13008   0.01248  -0.02113  -0.03874  -0.00910
   3    31     6          0.00741  -0.05689  -0.02902  -0.00780  -0.03060
   1    32     6          0.32059   0.00669   0.00419  -0.02371   0.03947
   2    32     6         -0.24641   0.00446  -0.00387  -0.02684   0.00133
   3    32     6          0.04398  -0.07136   0.02355   0.00688  -0.07136
   1    33     6          0.09064   0.01474   0.03165   0.00918  -0.00195
   2    33     6         -0.02083  -0.05140   0.01430  -0.05437  -0.03067
   3    33     6          0.04575  -0.07854  -0.02083  -0.02124  -0.02406
   1    34     1          0.08307  -0.01256   0.16529  -0.07726   0.05782
   2    34     1         -0.02713  -0.01756  -0.18726   0.08381  -0.13473
   3    34     1          0.07272  -0.04121  -0.15277   0.04863  -0.05203
   1    35     1          0.05723  -0.00667   0.17076  -0.07328   0.04776
   2    35     1          0.01141  -0.14229   0.27743  -0.23145   0.07857
   3    35     1         -0.00445  -0.06144   0.00609  -0.02694  -0.02170
   1    36     1         -0.04081  -0.07453  -0.00939   0.02056  -0.00137
   2    36     1         -0.04849  -0.04720  -0.02935   0.06301   0.01749
   3    36     1         -0.02900   0.19227   0.06432  -0.01342   0.05253
   1    37     6         -0.06604  -0.00073   0.01563   0.01261   0.03597
   2    37     6         -0.03066  -0.05718  -0.00637   0.13317   0.08337
   3    37     6         -0.00791   0.13663   0.04374  -0.01298   0.01881
   1    38     8         -0.05915   0.03372   0.02637   0.01762   0.06608
   2    38     8         -0.02990  -0.10199  -0.01513   0.24949   0.19415
   3    38     8         -0.00296   0.17371   0.05539  -0.01011   0.04857
   1    39     6          0.00476   0.09631   0.05284  -0.02412   0.05134
   2    39     6          0.08548  -0.01328   0.03467   0.07484   0.00121
   3    39     6         -0.00439   0.06638   0.02791   0.00434  -0.02083
   1    40     1          0.00145   0.12044   0.05037  -0.02480   0.05272
   2    40     1          0.03457  -0.01478   0.02347   0.09114  -0.00969
   3    40     1          0.03153   0.09456   0.03345  -0.00910  -0.01113
   1    41     1          0.07237   0.11284   0.07831  -0.03621   0.06880
   2    41     1          0.07262  -0.01468   0.03072   0.07792  -0.00266
   3    41     1         -0.02019   0.08595   0.04019   0.01474  -0.02603
   1    42     1          0.01116   0.11049   0.05440  -0.02546   0.05236
   2    42     1          0.13505   0.00434   0.05759   0.06902   0.01049
   3    42     1         -0.03886   0.01902   0.01221   0.01208  -0.02863
   1    43     1         -0.09976  -0.08269  -0.01631   0.02608  -0.00672
   2    43     1         -0.01778  -0.03994  -0.02252   0.06350   0.02564
   3    43     1          0.00256   0.17560   0.03543  -0.08434  -0.02468
   1    44     1         -0.06080  -0.15628  -0.03880   0.03672  -0.03509
   2    44     1         -0.02565  -0.00732  -0.03458  -0.00815  -0.01945
   3    44     1         -0.01090   0.11315   0.03231  -0.01968  -0.00175
   1    45     1         -0.02452  -0.11516  -0.02364   0.02286  -0.02296
   2    45     1          0.07146   0.01215  -0.03304  -0.03233  -0.01056
   3    45     1          0.09467   0.00156   0.00091   0.00023  -0.04736
   1    46     6          0.03550   0.01991  -0.05387  -0.04274   0.07387
   2    46     6          0.03324   0.04687  -0.03695  -0.02998   0.02928
   3    46     6         -0.00840  -0.09924   0.05653   0.01306  -0.09703
   1    47     1         -0.13103   0.02673  -0.06892  -0.05777   0.06346
   2    47     1         -0.07782   0.04733  -0.04350  -0.03731   0.02340
   3    47     1         -0.15675  -0.12562   0.06839   0.01901  -0.10165
   1    48     1         -0.00652   0.02328  -0.06277  -0.04641   0.07754
   2    48     1          0.21586   0.04047  -0.02122  -0.01308   0.03661
   3    48     1          0.06258  -0.11617   0.10271   0.01775  -0.13669
   1    49     1          0.06769   0.02540  -0.07832  -0.03581   0.10407
   2    49     1          0.04633   0.07866  -0.07156  -0.04432   0.04609
   3    49     1          0.01348  -0.07980   0.02703   0.00882  -0.07455
   1    50     8          0.06281   0.09020  -0.30619   0.24060  -0.16802
   2    50     8         -0.02499  -0.04508  -0.01452  -0.03477  -0.04449
   3    50     8          0.08346  -0.17388   0.12729  -0.12039   0.01396
   1    51     1          0.11919   0.10121  -0.28253   0.24055  -0.17536
   2    51     1         -0.01481  -0.07888  -0.01751  -0.03006  -0.06769
   3    51     1          0.06012  -0.19215   0.11463  -0.11861   0.00879
   1    52     1          0.23459   0.01198  -0.01632  -0.04949   0.10513
   2    52     1          0.00970   0.08032  -0.09158  -0.03037   0.01562
   3    52     1         -0.02256  -0.10590  -0.00613  -0.05332   0.02326
   1    53     1          0.07213   0.01782   0.02291  -0.02514   0.02451
   2    53     1          0.08311  -0.04476   0.03775  -0.01227  -0.02804
   3    53     1          0.01968  -0.08539   0.05261   0.01344  -0.09339
   1    54     6          0.00501  -0.02806  -0.05247  -0.09374   0.09125
   2    54     6         -0.00529   0.05405   0.03157   0.10689   0.03325
   3    54     6         -0.00256  -0.09063  -0.05137  -0.10145  -0.05840
   1    55     1          0.00139  -0.03927  -0.05847  -0.09092   0.16213
   2    55     1         -0.00052   0.05419   0.02939   0.14514   0.05025
   3    55     1         -0.00540  -0.09448  -0.05267  -0.11301  -0.04009
   1    56     1          0.00504  -0.02739  -0.03785  -0.06898   0.11247
   2    56     1         -0.00385   0.05883   0.07046   0.17339   0.06905
   3    56     1          0.00357  -0.07976  -0.05296  -0.10211  -0.12864
   1    57     1          0.00633  -0.02584  -0.08933  -0.16040   0.01196
   2    57     1         -0.00770   0.05323   0.02672   0.07304   0.01716
   3    57     1         -0.00601  -0.09146  -0.05955  -0.15193  -0.08460
   1    58     6          0.00792  -0.01601  -0.03268  -0.06896   0.05622
   2    58     6         -0.00752   0.04604  -0.05468  -0.05580  -0.05055
   3    58     6         -0.00820  -0.12966  -0.05125  -0.05625   0.14171
   1    59     1          0.00822  -0.01004  -0.01056  -0.03683   0.04538
   2    59     1         -0.00675   0.03714  -0.08470  -0.11398  -0.08173
   3    59     1         -0.00941  -0.12285  -0.03070   0.00392   0.22703
   1    60     1          0.00546  -0.03012  -0.04388  -0.08152   0.12494
   2    60     1         -0.00683   0.06645  -0.03681   0.00426  -0.01667
   3    60     1         -0.00929  -0.14143  -0.06109  -0.08020   0.15579
   1    61     1          0.01098  -0.00837  -0.05681  -0.11011  -0.01338
   2    61     1         -0.00669   0.03195  -0.07560  -0.10936  -0.08103
   3    61     1         -0.00766  -0.14926  -0.07648  -0.12313   0.10852
   1    62     6         -0.00293  -0.03414   0.01474   0.01783   0.18814
   2    62     6          0.00138   0.05875   0.01521   0.09404   0.02032
   3    62     6          0.01487  -0.08511  -0.00153   0.07692   0.09212
   1    63     1          0.02580  -0.05249   0.01453   0.00861   0.21570
   2    63     1          0.02419   0.07012   0.03572   0.15671   0.03598
   3    63     1          0.01697  -0.09524  -0.00857   0.05236   0.09611
   1    64     1         -0.02737  -0.02853   0.02771   0.05278   0.21773
   2    64     1          0.01578   0.05411  -0.00746   0.03419  -0.03157
   3    64     1          0.03961  -0.08636   0.02589   0.14266   0.14961
   1    65     1         -0.01217  -0.03618   0.02447   0.03988   0.21789
   2    65     1         -0.02105   0.06087   0.03834   0.15011   0.07781
   3    65     1          0.00000  -0.06231   0.00410   0.10577   0.06305
                           6         7         8         9        10
                           A         A         A         A         A
       Frequencies ---    56.7724   71.5060   75.7979   87.1228   94.3387
    Reduced masses ---     4.6869    3.0767    5.1227    3.9278    3.9177
   Force constants ---     0.0089    0.0093    0.0173    0.0176    0.0205
    IR Intensities ---     2.4626    0.3267    2.4951    1.7802    0.9391
 Coord Atom Element:
   1     1     6          0.00853  -0.02411   0.02070   0.01081   0.03090
   2     1     6          0.02797  -0.01435   0.00764  -0.00237   0.02461
   3     1     6         -0.01640  -0.00717   0.04438  -0.03847  -0.02876
   1     2     6          0.00955  -0.03544   0.02649  -0.00661   0.04341
   2     2     6          0.08104   0.00180  -0.01074   0.02454   0.00635
   3     2     6          0.07013   0.00321   0.02188  -0.01985  -0.04203
   1     3     6          0.00727  -0.03439   0.02704  -0.00459   0.04166
   2     3     6          0.12537   0.02857  -0.05410   0.06728  -0.00325
   3     3     6          0.14328   0.01943  -0.03825   0.00788  -0.02753
   1     4     6         -0.00141  -0.02334   0.02442   0.01214   0.02710
   2     4     6          0.10445   0.03505  -0.06705   0.07283   0.01327
   3     4     6          0.11804   0.02134  -0.05555   0.00470   0.00637
   1     5     1         -0.00662  -0.02270   0.02673   0.01326   0.02405
   2     5     1          0.12817   0.05433  -0.09602   0.10069   0.01151
   3     5     1          0.16939   0.03296  -0.09321   0.02065   0.02386
   1     6     6         -0.00275  -0.01216   0.01940   0.02820   0.01322
   2     6     6          0.04611   0.01384  -0.03629   0.03805   0.03384
   3     6     6          0.02248   0.00525  -0.01416  -0.02307   0.01694
   1     7     7          0.00219  -0.01223   0.01515   0.02800   0.01721
   2     7     7          0.01304  -0.00848  -0.00935   0.00663   0.03473
   3     7     7         -0.03518  -0.00673   0.02243  -0.03620  -0.00518
   1     8     1          0.00899  -0.04260   0.03018  -0.01715   0.05114
   2     8     1          0.16994   0.04311  -0.07485   0.09244  -0.01940
   3     8     1          0.21684   0.03022  -0.06650   0.02896  -0.03903
   1     9     1          0.00930  -0.04647   0.03074  -0.02298   0.05630
   2     9     1          0.09044  -0.00531   0.00495   0.01448   0.00063
   3     9     1          0.08524   0.00133   0.04332  -0.02218  -0.06207
   1    10    17         -0.00438   0.00031   0.03248   0.04795  -0.02074
   2    10    17          0.01152   0.01604  -0.02109   0.03212   0.05691
   3    10    17         -0.01833  -0.00082  -0.00116  -0.04143   0.06529
   1    11     6          0.00743  -0.02524   0.02255   0.00804   0.03147
   2    11     6          0.00820  -0.02626   0.03543  -0.02894   0.02386
   3    11     6         -0.06036  -0.01131   0.06298  -0.04836  -0.03272
   1    12     8          0.01637  -0.02053   0.04551  -0.00926   0.02814
   2    12     8          0.03958  -0.03292   0.07948  -0.05007   0.04893
[...]
 ,-0.00000847,0.00002542,-0.00003622,0.00000653,0.00000058,0.00000639,0
 .00001577,-0.00005743,-0.00000305,0.00000510,0.00000671,-0.00000545,-0
 .00000201,0.00000369,0.00001101,-0.00008578,0.00013494,-0.00000896,-0.
 00008032,0.00010302,-0.00000078,-0.00001722,0.00002518,-0.00006957,0.0
 0001324,-0.00000526,0.00000667,-0.00000867,0.00000126,-0.00000752,-0.0
 0000621,0.00000180,-0.00001130,0.00039550,0.00013104,0.00019754,-0.000
 13201,-0.00002567,0.00006597,0.00003936,-0.00019636,-0.00003884,-0.000
 01998,-0.00003472,-0.00015892,-0.00000234,-0.00004927,-0.00002124,0.00
 000519,0.00003650,-0.00004216,0.00000515,0.00001122,0.00001568,-0.0000
 1118,0.00000427,-0.00001259,0.00000090,-0.00000081,-0.00001922,0.00002
 085,-0.00005255,0.00003255,0.00000554,-0.00000624,-0.00001892,0.000001
 85,0.00001362,0.00000478,-0.00000395,0.00000984,-0.00000143,0.00002642
 ,-0.00005827,0.00005086,0.00000213,0.00000147,-0.00001203,0.00001420,-
 0.00000061,-0.00001072,0.00001198,-0.00001886,-0.00002196,0.00010778,0
 .00131278,0.00076422,-0.00010217,-0.00065354,-0.00008215,-0.00005331,-
 0.00002857,-0.00010496,0.00023029,0.00027494,-0.00012535,-0.00097350,0
 .00102306,0.00042391,0.00010595,-0.00004437,-0.00010435,0.00030390,-0.
 00003347,-0.00011487,-0.00025667,0.00011584,-0.00020448,0.02622031,-0.
 07247835,-0.07791226,-0.02866963,0.07854647,-0.00007073,0.00001166,0.0
 0000711,0.00009089,0.00000081,-0.00000443,-0.00005116,0.00001492,-0.00
 000936,0.00001802,-0.00005798,0.00003624,-0.00000019,-0.00000122,0.000
 00112,0.00001612,0.00008299,-0.00007128,0.00004380,-0.00001945,0.00000
 816,0.00000480,-0.00000078,-0.00000136,-0.00002025,-0.00001424,0.00000
 435,0.00001777,-0.00004448,0.00003400,-0.00017597,-0.00007728,0.000057
 98,0.00048245,0.00020053,-0.00014501,-0.00010063,-0.00007334,0.0003215
 2,0.00008530,-0.00104598,-0.00073972,-0.00000225,0.00006313,0.00005832
 ,0.00006646,0.00027888,-0.00024605,-0.00044774,0.00449990,-0.00140648,
 0.00589967,-0.00695244,-0.01966877,-0.00010223,0.00004092,0.00039260,-
 0.00004684,0.00013156,-0.00006364,-0.00001996,0.00002270,0.00002760,-0
 .00006991,-0.00004537,-0.00002750,0.00000687,0.00005075,0.00000653,-0.
 00003266,0.00006057,0.00001941,0.00000952,-0.00000648,0.00000848,-0.00
 000890,-0.00001499,0.00003838,-0.00000473,-0.00001009,-0.00000230,0.00
 001005,-0.00002277,0.00000216,-0.00000052,0.00000655,-0.00000122,-0.00
 000076,0.00000466,0.00000375,-0.00002137,0.00001422,0.00001539,0.00004
 261,0.00002413,0.00002002,-0.00000246,0.00000655,-0.00004898,0.0000041
 4,0.00000048,0.00000104,-0.00000544,-0.00000365,0.00000178,-0.00000214
 ,-0.00001865,-0.00000489,0.00022593,0.00003774,-0.00004780,-0.00012999
 ,0.00001881,0.00010952,-0.00002161,-0.00005611,-0.00004575,0.00002169,
 -0.00005390,-0.00008785,0.00002311,-0.00000426,0.00000140,0.00000855,0
 .00000500,0.00000173,0.00003093,-0.00001849,0.00002082,-0.00000029,0.0
 0000538,0.00000107,-0.00000168,-0.00001448,-0.00000118,0.00000072,-0.0
 0001177,0.00000506,0.00000272,0.00000045,-0.00000122,-0.00000317,0.000
 00683,-0.00000306,-0.00000422,0.00000399,0.00000393,0.00000857,-0.0000
 3387,0.00003493,0.00000194,0.00000226,-0.00000857,0.00000376,-0.000000
 63,-0.00000702,0.00000528,-0.00000836,-0.00000808,-0.00054207,-0.00133
 205,0.00061795,0.00025173,0.00043803,0.00051327,0.00000183,0.00008922,
 -0.00004790,-0.00023893,0.00005932,0.00033289,0.00084528,-0.00132389,0
 .00067370,-0.00003979,0.00007269,-0.00011610,-0.00064234,0.00053906,0.
 00016252,-0.00003887,0.00004527,0.00048146,0.07431963,-0.07601298,-0.2
 6136357,-0.08113759,0.08029776,0.28323480,0.00007307,0.00000682,-0.000
 02042,-0.00001028,0.00000820,-0.00001110,0.00001697,-0.00000101,0.0000
 0277,0.00001244,0.00001680,-0.00001729,0.00000119,-0.00000189,-0.00000
 520,-0.00002956,-0.00001522,-0.00001138,0.00002883,0.00007097,0.000066
 14,0.00000071,-0.00000081,-0.00000170,0.00000449,-0.00000084,-0.000010
 37,-0.00000133,0.00001953,0.00000496,-0.00014360,-0.00005361,-0.000033
 20,0.00006377,0.00009102,-0.00009271,0.00014914,0.00041241,0.00032844,
 0.00005598,-0.00001654,0.00011579,0.00000788,0.00005832,-0.00005232,-0
 .00000926,-0.00001456,0.00004113,0.00009181,-0.00020410,-0.00046201,-0
 .00162317,0.00004493,0.00037965,0.00020425,-0.00038274,0.00032048,0.00
 002136,-0.00009928,0.00001047,-0.00006798,-0.00013609,0.00012410,0.000
 14689,0.00109785,0.00086170,0.00012046,-0.00009031,-0.00021348,-0.0004
 6406,-0.00084620,0.00022510,0.00005186,0.00003426,0.00000147,-0.000029
 98,0.00004354,-0.00008100,-0.00000435,0.00000867,0.00001953,0.00001829
 ,-0.00004612,-0.00000404,0.00001391,0.00000419,-0.00000907,-0.00000295
 ,0.00000150,0.00000725,-0.00015568,0.00016665,-0.00003792,-0.00022195,
 0.00007096,-0.00000372,-0.00005181,0.00002360,-0.00003783,0.00003419,-
 0.00001363,0.00000423,-0.00000828,-0.00001929,-0.00001995,-0.00002738,
 0.00001686,-0.00002281,0.00104035,-0.00059094,-0.00066814,-0.00082846,
 -0.00001149,-0.00000044,-0.00029749,-0.00068344,-0.00002981,0.00042654
 ,-0.00056836,-0.00021927,0.00011313,-0.00023089,-0.00025628,-0.0000725
 5,-0.00000405,0.00010008,0.00002091,0.00011253,0.00005352,-0.00001541,
 0.00001467,-0.00001059,-0.00001130,-0.00001367,-0.00005559,0.00004411,
 -0.00005803,0.00004265,0.00001010,-0.00000830,-0.00002306,0.00000841,0
 .00002017,0.00001947,-0.00000440,0.00001244,-0.00001081,0.00005758,-0.
 00004063,0.00003031,-0.00001868,0.00000203,-0.00000414,0.00001447,0.00
 000323,-0.00000924,-0.00002409,0.00000518,-0.00000701,0.00058385,0.000
 04308,0.00069598,-0.00004266,0.00003692,-0.00017541,0.00031102,0.00020
 317,-0.00000852,0.00033849,-0.00021451,-0.00016717,0.00067969,0.001070
 92,0.00004980,0.00005296,0.00031230,-0.00031845,-0.00002665,0.00006622
 ,0.00015025,0.00004904,-0.00005386,0.00019447,-0.15566301,-0.12000669,
 -0.05428935,0.00675868,0.00836126,0.00310157,0.16383194,0.00002657,-0.
 00001432,-0.00002899,-0.00000132,0.00000371,0.00000759,0.00001087,-0.0
 0000096,0.00000537,0.00000312,0.00001241,-0.00000446,-0.00000011,-0.00
 000080,-0.00000127,-0.00001059,-0.00002078,0.00001518,-0.00001700,0.00
 000524,-0.00000266,0.00000197,-0.00000131,-0.00000271,0.00000387,-0.00
 000291,-0.00001108,-0.00000236,0.00001371,-0.00000806,-0.00000899,-0.0
 0024300,0.00003692,0.00017331,0.00019642,-0.00006202,-0.00009906,-0.00
 010932,0.00012090,0.00017996,-0.00005241,0.00002044,-0.00006319,0.0000
 2707,-0.00008514,-0.00002670,0.00001837,0.00003719,-0.00005342,0.00067
 015,-0.00116105,-0.01505239,-0.01763876,-0.00894474,-0.00026297,0.0008
 0242,0.00088060,-0.00013944,0.00006819,0.00007826,0.00006901,-0.000006
 49,0.00013850,0.00084188,-0.00223649,-0.00217216,-0.00003464,-0.000054
 72,-0.00014209,-0.00029774,-0.00103280,0.00032698,-0.00001785,-0.00000
 613,-0.00000896,-0.00001683,0.00000711,-0.00000307,0.00001117,-0.00000
 187,-0.00000120,0.00000082,0.00000042,-0.00000450,0.00000109,0.0000007
 1,-0.00000181,0.00000093,-0.00000118,-0.00000007,-0.00003733,0.0000841
 3,0.00000053,-0.00003128,0.00003605,0.00003233,0.00002319,-0.00002541,
 -0.00003857,-0.00000807,0.00000181,0.00000962,0.00000115,0.00000966,0.
 00001802,0.00000133,0.00001640,0.00001626,-0.00063753,-0.00096516,-0.0
 0082067,-0.00008366,-0.00085660,-0.00053469,0.00044153,-0.00116402,-0.
 00072280,-0.00063556,-0.00187187,0.00044152,-0.00010595,0.00007487,0.0
 0010977,-0.00008904,0.00031420,0.00014782,0.00000259,0.00006299,0.0001
 1086,0.00000285,0.00000479,0.00000212,0.00000606,-0.00000456,-0.000002
 05,-0.00002235,-0.00002635,0.00004184,0.00000718,-0.00000075,-0.000005
 73,0.00000423,0.00001176,0.00000376,-0.00000300,0.00000880,0.00000341,
 -0.00000825,0.00000307,0.00001618,0.00000558,-0.00000511,0.00000217,-0
 .00000146,0.00000235,-0.00000239,0.00006273,-0.00004296,-0.00005866,0.
 00085157,-0.00343289,0.00436623,0.00025974,0.00032971,0.00013709,-0.00
 010535,0.00022723,0.00002342,-0.00120882,-0.00106526,-0.00035462,-0.00
 112794,0.00096486,-0.00091853,0.00063760,-0.00031425,0.00041552,0.0000
 2027,-0.00022674,-0.00003600,0.00014747,0.00040889,0.00004329,-0.11920
 949,-0.17650644,-0.05981930,-0.00578181,-0.00634684,-0.00171635,0.1322
 9803,0.20013187,0.00004257,0.00000809,0.00001764,-0.00003225,-0.000005
 36,-0.00001452,0.00001658,0.00000192,0.00000137,0.00000316,0.00001657,
 -0.00001726,0.00000102,-0.00000091,-0.00000243,-0.00000518,-0.00002492
 ,0.00002325,0.00000534,0.00002436,0.00001280,-0.00000246,-0.00000018,0
 .00000045,0.00000608,0.00000616,0.00000056,-0.00000871,0.00001621,-0.0
 0000820,0.00002216,0.00013193,0.00001071,-0.00015445,-0.00019027,0.000
 05625,-0.00032391,-0.00022983,0.00006789,-0.00014654,0.00009293,0.0002
 2583,0.00002840,-0.00000478,0.00004257,-0.00000205,-0.00003430,0.00002
 597,0.00089479,0.00073520,0.00113441,0.01379382,0.01459165,0.00586064,
 -0.00031917,0.00067835,-0.00000098,0.00003075,-0.00004277,-0.00000849,
 0.00002119,-0.00007045,-0.00002770,0.00050160,-0.00200149,-0.00077252,
 0.00002938,-0.00002299,-0.00008125,-0.00012358,-0.00069284,-0.00014554
 ,0.00001322,0.00002775,-0.00001823,0.00000086,0.00003636,-0.00007886,-
 0.00000797,0.00001553,0.00001526,-0.00000154,0.00001236,0.00000244,0.0
 0000594,-0.00000272,-0.00000159,-0.00000102,-0.00000464,-0.00000196,-0
 .00001812,0.00002996,-0.00001701,-0.00011493,-0.00003804,-0.00001412,-
 0.00001658,-0.00000431,0.00003853,0.00001273,-0.00000502,-0.00000535,-
 0.00000070,-0.00001393,-0.00001523,-0.00000210,0.00003516,0.00001505,-
 0.00058632,-0.00087373,-0.00045645,-0.00039127,-0.00060439,-0.00092917
 ,-0.00041632,-0.00066799,0.00038678,0.00027739,0.00028572,-0.00004830,
 0.00016076,-0.00010342,-0.00023687,0.00001713,0.00000277,-0.00000015,-
 0.00002479,0.00012355,-0.00002951,-0.00000296,0.00000247,-0.00000430,0
 .00000110,0.00001325,-0.00000580,0.00001730,0.00000010,0.00000519,0.00
 000214,0.00000042,-0.00000489,0.00000469,0.00000181,0.00001444,0.00000
 539,-0.00000008,-0.00001032,0.00001995,0.00001702,-0.00001667,-0.00001
 313,-0.00000232,0.00000031,-0.00000080,0.00000162,0.00000055,-0.000032
 06,0.00003223,0.00001118,-0.00021089,0.00273679,-0.00246121,-0.0001322
 2,0.00030302,0.00022722,-0.00002465,-0.00010092,-0.00020932,0.00059998
 ,0.00104529,0.00065813,0.00081522,-0.00026384,0.00054768,-0.00023021,-
 0.00010485,0.00008814,-0.00018823,-0.00006179,-0.00004974,0.00022303,-
 0.00019268,-0.00001890,-0.05383860,-0.05946398,-0.07367062,-0.01915689
 ,-0.01900815,-0.00757843,0.05929249,0.06517096,0.07909813,-0.00002041,
 0.00000138,0.00009312,0.00000920,-0.00001225,-0.00001083,-0.00001236,0
 .00000560,-0.00000726,0.00001027,-0.00002038,0.00002027,0.00000151,0.0
 0000211,0.00000147,-0.00002506,0.00005770,-0.00004861,0.00008153,-0.00
 003648,-0.00008465,-0.00000018,-0.00000064,0.00000175,-0.00000722,0.00
 000003,0.00000632,0.00001020,-0.00003642,0.00002891,0.00039059,0.00030
 767,-0.00003107,0.00028225,-0.00058537,0.00008829,-0.00069169,-0.00094
 780,0.00267424,-0.00027380,-0.00008414,-0.00014285,-0.00001483,-0.0000
 6588,0.00005048,0.00003007,0.00004500,-0.00006823,-0.00057906,0.000745
 78,0.00024332,0.00108018,-0.00169982,-0.00032566,-0.00015114,0.0001896
 1,-0.00005110,-0.00028602,0.00019641,-0.00011231,0.00005960,0.00009453
 ,0.00001808,0.00013928,-0.00034665,-0.00015492,0.00001916,0.00014221,0
 .00017629,0.00003025,0.00032837,-0.00011885,-0.00004564,-0.00004013,0.
 00002005,-0.00000741,-0.00002673,0.00004938,0.00000836,-0.00001142,-0.
 00001415,0.00000282,0.00001734,0.00000795,-0.00000606,-0.00000059,-0.0
 0000105,0.00000006,-0.00000210,0.00000107,0.00001316,-0.00007643,-0.00
 005587,0.00011320,-0.00007962,0.00001492,0.00008606,-0.00006831,-0.000
 03380,-0.00001337,0.00001087,0.00000345,0.00000263,-0.00002917,0.00003
 383,0.00002019,-0.00000756,0.00001404,-0.00082629,0.00003442,0.0002113
 9,0.00040555,-0.00031290,-0.00029065,0.00004253,0.00047257,0.00002478,
 -0.00037995,-0.00007019,-0.00006173,0.00011168,0.00011125,0.00015992,0
 .00021961,0.00027819,-0.00003675,0.00000181,-0.00003202,0.00003694,0.0
 0002226,0.00000161,0.00001162,0.00000759,-0.00000690,0.00001361,-0.000
 03002,0.00003759,0.00001252,0.00000206,0.00000423,0.00000938,0.0000022
 9,0.00000298,-0.00000562,-0.00000289,-0.00000176,0.00000930,-0.0000504
 1,0.00006953,0.00000908,0.00002206,-0.00001481,-0.00000210,-0.00000714
 ,0.00000349,-0.00000014,0.00001961,-0.00002578,-0.00001456,0.00063931,
 -0.00055619,0.00006049,-0.00008650,0.00010503,-0.00009304,0.00020269,-
 0.00013061,0.00014309,0.00021064,0.00012288,-0.00001391,0.00086634,0.0
 0065619,-0.00069973,0.00022777,-0.00011252,0.00022496,0.00014139,-0.00
 029705,0.00002044,0.00004443,0.00012836,0.00007366,-0.26653880,0.09696
 743,-0.02564505,-0.00742767,0.00216292,-0.00166432,-0.01560243,0.00910
 379,-0.00033551,0.28750620,-0.00004313,-0.00003908,0.00000740,0.000017
 51,-0.00000546,0.00000713,-0.00002045,0.00000091,0.00000770,-0.0000025
 1,-0.00001339,0.00001221,-0.00000241,0.00000161,0.00000506,-0.00001941
 ,0.00002750,0.00000096,-0.00003887,-0.00005077,-0.00005762,0.00000075,
 -0.00000085,0.00000117,-0.00000113,-0.00000274,0.00000498,0.00000339,-
 0.00001814,0.00000265,-0.00022934,-0.00027472,0.00025648,-0.00022369,0
 .00036744,-0.00002045,-0.00004997,0.00012699,-0.00073268,0.00020935,-0
 .00009016,-0.00006240,0.00008120,0.00004935,-0.00005105,0.00000298,-0.
 00000945,0.00000815,0.00035638,0.00021184,-0.00076411,0.02196841,-0.00
 975747,0.00071846,-0.00008005,0.00007470,-0.00006078,-0.00007059,0.000
 36153,0.00013471,0.00005140,0.00004400,0.00002234,-0.00012578,-0.00028
 569,-0.00055671,-0.00005684,0.00000155,-0.00000624,0.00024708,0.000141
 90,0.00001997,-0.00001072,-0.00000494,-0.00000090,0.00001537,-0.000011
 62,0.00002690,-0.00000126,-0.00000114,-0.00000582,0.00000027,0.0000138
 2,0.00000975,-0.00000786,0.00000280,0.00000208,-0.00000109,0.00000248,
 -0.00000025,0.00002803,0.00000814,0.00006761,0.00006121,-0.00001676,-0
 .00001728,0.00006827,-0.00004383,-0.00005094,-0.00002145,0.00001000,0.
 00000655,-0.00001270,0.00001181,0.00002351,0.00000737,-0.00000589,0.00
 000836,-0.00038146,0.00007507,0.00025164,0.00014108,-0.00026794,-0.000
 23000,-0.00021617,0.00085508,-0.00016087,-0.00032400,0.00005942,0.0000
 7017,0.00017115,0.00008083,0.00020705,0.00045226,-0.00082485,0.0000893
 5,0.00000472,-0.00000635,0.00000911,0.00000675,-0.00000666,-0.00000191
 ,0.00000634,0.00000623,0.00001659,-0.00002103,0.00000050,-0.00000377,0
 .00000256,0.00000442,0.00000474,-0.00000136,-0.00000217,-0.00000529,0.
 00000193,-0.00000034,0.00000768,-0.00003939,0.00002594,0.00001520,0.00
 001705,-0.00000689,0.00000120,-0.00000560,-0.00000015,0.00000181,0.000
 01691,-0.00001045,-0.00001833,0.00138450,0.00115978,-0.00021095,0.0000
 6480,-0.00011268,-0.00005402,-0.00069232,-0.00062743,0.00015591,-0.000
 22052,0.00031540,-0.00008559,-0.00116390,-0.00379530,0.00354122,0.0001
 0926,0.00019769,0.00014372,-0.00044850,0.00013050,-0.00001833,0.001591
 89,-0.00035365,0.00048146,0.09631513,-0.09058323,0.01117422,0.00812880
 ,-0.00430292,0.00185859,-0.02033212,0.00976010,-0.00135963,-0.10666845
 ,0.09740379,0.00004865,0.00005208,-0.00000418,-0.00007475,-0.00000298,
 -0.00000330,0.00004103,-0.00001440,0.00000718,-0.00002612,0.00004816,-
 0.00004190,-0.00000283,-0.00000166,0.00000261,0.00005992,-0.00013423,0
 .00012367,-0.00008646,-0.00001174,0.00002384,-0.00000589,0.00000236,0.
 00000217,0.00000567,0.00000834,0.00000439,-0.00003090,0.00005692,-0.00
 005063,0.00034774,0.00061498,-0.00048141,0.00027307,-0.00060544,0.0001
 6701,0.00143879,-0.00017571,-0.00266275,-0.00014685,0.00012606,0.00021
 731,-0.00005731,-0.00006618,0.00007120,0.00001653,-0.00002590,0.000019
 53,-0.00130299,0.00010195,0.00080799,-0.01976757,0.00734950,-0.0027137
 3,-0.00012182,0.00007933,-0.00011397,0.00056503,-0.00006776,-0.0003098
 3,0.00002519,0.00003043,0.00002041,0.00022906,-0.00053994,-0.00010708,
 0.00003259,0.00008387,0.00006425,0.00018173,0.00036561,-0.00007160,-0.
 00002790,-0.00002662,0.00001271,-0.00000875,-0.00000337,0.00000054,0.0
 0000846,-0.00000146,-0.00000722,-0.00002895,0.00011197,0.00000016,-0.0
 0000343,-0.00001149,0.00000654,0.00000169,-0.00000901,-0.00001717,0.00
 002665,-0.00014813,0.00003272,-0.00005598,-0.00013754,-0.00000443,-0.0
 0000153,-0.00000290,0.00013117,-0.00002279,0.00000541,-0.00000530,0.00
 003194,-0.00001425,-0.00000103,0.00001048,0.00000017,0.00000154,-0.000
 56384,0.00009666,0.00004570,0.00023408,-0.00013672,-0.00018357,0.00002
 845,0.00005621,0.00000807,0.00001878,-0.00000400,0.00001118,0.00000637
 ,0.00002504,-0.00000202,-0.00006027,0.00002876,0.00003226,-0.00000583,
 -0.00001556,0.00002344,0.00001344,0.00000041,0.00000868,0.00000648,-0.
 00000433,0.00000446,-0.00001652,0.00003893,-0.00001335,0.00000314,0.00
 000508,0.00001369,0.00000657,-0.00000472,0.00000238,0.00000133,-0.0000
 0589,-0.00000137,-0.00002522,0.00004749,-0.00008209,-0.00000388,0.0000
 0708,0.00001519,-0.00002479,0.00000441,0.00001960,0.00000627,0.0000083
 3,0.00001252,-0.00026428,-0.00105333,0.00023428,0.00018218,-0.00001779
 ,-0.00002068,0.00022584,0.00008099,0.00035796,0.00001305,-0.00015361,-
 0.00015449,0.00092816,0.00310281,-0.00264957,0.00030498,-0.00009894,-0
 .00004993,-0.00006811,0.00018305,0.00025638,-0.00119111,0.00082525,0.0
 0018618,-0.02416287,0.01072044,-0.04980285,0.02612325,-0.01082035,0.00
 449647,-0.00884298,0.00489577,-0.00162746,0.02555594,-0.01484788,0.053
 73753\\-0.00000535,0.00000779,0.00000161,-0.00000541,0.00000612,0.0000
 0201,-0.00000706,0.00001136,0.00000341,-0.00000490,0.00001062,0.000004
 94,-0.00000377,0.00001508,0.00000651,-0.00000200,0.00000978,0.00000330
 ,-0.00000292,0.00000622,0.00000316,-0.00000699,0.00001248,0.00000386,-
 0.00000671,0.00000657,0.00000091,-0.00000544,0.00001171,0.00000402,-0.
 00000436,0.00000097,-0.00000046,-0.00000753,0.00000067,-0.00000107,-0.
 00000238,0.00000028,-0.00000098,-0.00000723,-0.00000452,-0.00000351,-0
 .00000955,-0.00000371,-0.00000376,-0.00000496,-0.00000411,-0.00000323,
 -0.00000425,-0.00000262,-0.00000147,-0.00000768,-0.00000216,-0.0000027
 6,-0.00000333,-0.00000411,-0.00000188,-0.00000059,0.00000397,0.0000028
 1,0.00000425,-0.00001088,-0.00000310,0.00000177,-0.00000647,-0.0000011
 8,0.00000428,-0.00000384,-0.00000086,0.00000731,-0.00000234,-0.0000011
 7,0.00000648,-0.00000667,-0.00000241,0.00000211,-0.00000338,-0.0000026
 2,0.00000914,-0.00000809,-0.00000132,0.00000745,0.00000803,0.00000478,
 0.00000978,0.00000851,0.00000599,0.00000712,0.00000442,0.00000396,0.00
 000505,0.00000467,0.00000149,0.00000666,-0.00000183,0.00000306,0.00000
 697,0.00000583,0.00000320,0.00000917,0.00001293,0.00000684,0.00000311,
 0.00000417,0.00000367,0.00000531,-0.00001176,-0.00000453,0.00000195,-0
 .00000859,-0.00000125,0.00000363,-0.00000995,-0.00000506,0.00000422,-0
 .00000167,-0.00000026,0.00000192,-0.00000435,-0.00000149,0.00000514,-0
 .00000395,-0.00000140,0.00000171,-0.00000134,-0.00000014,0.00000158,-0
 .00000979,-0.00000481,0.00000682,-0.00000802,-0.00000207,0.00000645,-0
 .00000271,0.00000065,0.00001075,0.00000083,0.00000129,0.00001329,0.000
 00104,0.00000353,0.00001115,-0.00000295,0.00000062,0.00001021,-0.00000
 017,0.00000233,0.00000891,0.00000766,0.00000327,0.00000858,0.00000742,
 0.00000567,0.00001065,0.00000684,0.00000525,0.00000765,0.00000150,0.00
 000182,-0.00001063,-0.00000157,-0.00000173,-0.00001299,-0.00000151,-0.
 00000279,-0.00001114,0.00000264,-0.00000039,-0.00001275,-0.00000231,-0
 .00000425,-0.00000865,-0.00000686,-0.00000500,-0.00000717,-0.00000955,
 -0.00000540,-0.00001084,-0.00000779,-0.00000553,-0.00001057,-0.0000073
 7,-0.00000568,-0.00000544,-0.00000240,-0.00000262,-0.00000752,-0.00000
 407,-0.00000276,-0.00000549,-0.00000685,-0.00000456,-0.00000496,0.0000
 0017,-0.00000043\\\@


 "THE TIME HAS COME", THE WALRUS SAID,
 "TO TALK OF MANY THINGS,
 OF SHOES AND SHIPS AND SEALING WAX,
 OF CABBAGES AND KINGS,
 AND WHY THE SEA IS BOILING HOT,
 AND WHETHER PIGS HAVE WINGS."
 Job cpu time:       2 days 17 hours 18 minutes 23.8 seconds.
 File lengths (MBytes):  RWF=   7512 Int=      0 D2E=      0 Chk=     25 Scr=      1
 Normal termination of Gaussian 09 at Fri Feb  2 15:16:59 2018.
