 Entering Gaussian System, Link 0=g09
 Input=/home/anb28780/chem/arg_stacking/solvent_dimers/tetrazole_taut/tetrazole_taut.ho.2.1.com
 Output=/home/anb28780/chem/arg_stacking/solvent_dimers/tetrazole_taut/tetrazole_taut.ho.2.1.log
 Initial command:
 /usr/local/apps/eb/gaussian/09-Intel-SSE4_2/g09/l1.exe "/lscratch/anb28780/285285.sapelo2/Gau-63813.inp" -scrdir="/lscratch/anb28780/285285.sapelo2/"
 Default is to use a total of  28 processors:
                               28 via shared-memory
                                1 via Linda
 Entering Link 1 = /usr/local/apps/eb/gaussian/09-Intel-SSE4_2/g09/l1.exe PID=     63814.
  
 Copyright (c) 1988,1990,1992,1993,1995,1998,2003,2009,2013,
            Gaussian, Inc.  All Rights Reserved.
  
 This is part of the Gaussian(R) 09 program.  It is based on
 the Gaussian(R) 03 system (copyright 2003, Gaussian, Inc.),
 the Gaussian(R) 98 system (copyright 1998, Gaussian, Inc.),
 the Gaussian(R) 94 system (copyright 1995, Gaussian, Inc.),
 the Gaussian 92(TM) system (copyright 1992, Gaussian, Inc.),
 the Gaussian 90(TM) system (copyright 1990, Gaussian, Inc.),
 the Gaussian 88(TM) system (copyright 1988, Gaussian, Inc.),
 the Gaussian 86(TM) system (copyright 1986, Carnegie Mellon
 University), and the Gaussian 82(TM) system (copyright 1983,
 Carnegie Mellon University). Gaussian is a federally registered
 trademark of Gaussian, Inc.
  
 This software contains proprietary and confidential information,
 including trade secrets, belonging to Gaussian, Inc.
  
 This software is provided under written license and may be
 used, copied, transmitted, or stored only in accord with that
 written license.
  
 The following legend is applicable only to US Government
 contracts under FAR:
  
                    RESTRICTED RIGHTS LEGEND
  
 Use, reproduction and disclosure by the US Government is
 subject to restrictions as set forth in subparagraphs (a)
 and (c) of the Commercial Computer Software - Restricted
 Rights clause in FAR 52.227-19.
  
 Gaussian, Inc.
 340 Quinnipiac St., Bldg. 40, Wallingford CT 06492
  
  
 ---------------------------------------------------------------
 Warning -- This program may not be used in any manner that
 competes with the business of Gaussian, Inc. or will provide
 assistance to any competitor of Gaussian, Inc.  The licensee
 of this program is prohibited from giving any competitor of
 Gaussian, Inc. access to this program.  By using this program,
 the user acknowledges that Gaussian, Inc. is engaged in the
 business of creating and licensing software in the field of
 computational chemistry and represents and warrants to the
 licensee that it is not a competitor of Gaussian, Inc. and that
 it will not use this program in any manner prohibited above.
 ---------------------------------------------------------------
  

 Cite this work as:
 Gaussian 09, Revision D.01,
 M. J. Frisch, G. W. Trucks, H. B. Schlegel, G. E. Scuseria, 
 M. A. Robb, J. R. Cheeseman, G. Scalmani, V. Barone, B. Mennucci, 
 G. A. Petersson, H. Nakatsuji, M. Caricato, X. Li, H. P. Hratchian, 
 A. F. Izmaylov, J. Bloino, G. Zheng, J. L. Sonnenberg, M. Hada, 
 M. Ehara, K. Toyota, R. Fukuda, J. Hasegawa, M. Ishida, T. Nakajima, 
 Y. Honda, O. Kitao, H. Nakai, T. Vreven, J. A. Montgomery, Jr., 
 J. E. Peralta, F. Ogliaro, M. Bearpark, J. J. Heyd, E. Brothers, 
 K. N. Kudin, V. N. Staroverov, T. Keith, R. Kobayashi, J. Normand, 
 K. Raghavachari, A. Rendell, J. C. Burant, S. S. Iyengar, J. Tomasi, 
 M. Cossi, N. Rega, J. M. Millam, M. Klene, J. E. Knox, J. B. Cross, 
 V. Bakken, C. Adamo, J. Jaramillo, R. Gomperts, R. E. Stratmann, 
 O. Yazyev, A. J. Austin, R. Cammi, C. Pomelli, J. W. Ochterski, 
 R. L. Martin, K. Morokuma, V. G. Zakrzewski, G. A. Voth, 
 P. Salvador, J. J. Dannenberg, S. Dapprich, A. D. Daniels, 
 O. Farkas, J. B. Foresman, J. V. Ortiz, J. Cioslowski, 
 and D. J. Fox, Gaussian, Inc., Wallingford CT, 2013.
 
 ******************************************
 Gaussian 09:  ES64L-G09RevD.01 24-Apr-2013
                10-Aug-2018 
 ******************************************
 ----------------------------------------------------------------------
 #wb97xd/def2TZVP opt=(nolinear, maxstep=5) scrf=(smd, solvent=diethyle
 ther) freq=noraman
 ----------------------------------------------------------------------
 1/8=5,14=-1,18=20,19=1,26=3,38=1/1,3;
 2/9=110,12=2,17=6,18=5,40=1/2;
 3/5=44,7=101,11=2,16=1,25=1,30=1,70=32201,71=1,72=8,74=-58/1,2,3;
 4//1;
 5/5=2,38=5,53=8/2;
 6/7=2,8=2,9=2,10=2,28=1/1;
 7//1,2,3,16;
 1/8=5,14=-1,18=20,19=1,26=3/3(2);
 2/9=110/2;
 99//99;
 2/9=110/2;
 3/5=44,7=101,11=2,16=1,25=1,30=1,70=32205,71=1,72=8,74=-58/1,2,3;
 4/5=5,16=3,69=1/1;
 5/5=2,38=5,53=8/2;
 7//1,2,3,16;
 1/8=5,14=-1,18=20,19=1,26=3/3(-5);
 2/9=110/2;
 6/7=2,8=2,9=2,10=2,19=2,28=1/1;
 99/9=1/99;
 ----------------------------------------------------
 running tetrazole_taut.ho.2.1 again after failed run
 ----------------------------------------------------
 Symbolic Z-matrix:
 Charge =  1 Multiplicity = 1
 C                     2.88981   0.00552   0.01434 
 N                     1.58013  -0.08965   0.1723 
 H                     0.94231   0.65093  -0.06748 
 H                     1.17074  -0.92628   0.55247 
 N                     3.67399  -1.00466   0.37444 
 N                     3.41531   1.11193  -0.49667 
 H                     3.27762  -1.84788   0.75268 
 H                     4.66937  -0.97236   0.23462 
 H                     2.82627   1.88498  -0.75536 
 H                     4.41082   1.20941  -0.60014 
 N                    -2.51776   0.46115   0.8883 
 N                    -3.69456   0.1739    0.40607 
 N                    -3.47768  -0.38519  -0.75008 
 C                    -2.14423  -0.43165  -0.89252 
 N                    -1.50896   0.08858   0.13703 
 H                    -1.65077  -0.85936  -1.74883 
 H                    -2.41313   0.92482   1.78135 
 
 Add virtual bond connecting atoms N15        and H3         Dist= 4.77D+00.

 GradGradGradGradGradGradGradGradGradGradGradGradGradGradGradGradGradGrad
 Berny optimization.
 Initialization pass.
                           ----------------------------
                           !    Initial Parameters    !
                           ! (Angstroms and Degrees)  !
 --------------------------                            --------------------------
 ! Name  Definition              Value          Derivative Info.                !
 --------------------------------------------------------------------------------
 ! R1    R(1,2)                  1.3226         estimate D2E/DX2                !
 ! R2    R(1,5)                  1.3286         estimate D2E/DX2                !
 ! R3    R(1,6)                  1.3272         estimate D2E/DX2                !
 ! R4    R(2,3)                  1.0064         estimate D2E/DX2                !
 ! R5    R(2,4)                  1.006          estimate D2E/DX2                !
 ! R6    R(3,15)                 2.5232         estimate D2E/DX2                !
 ! R7    R(5,7)                  1.0056         estimate D2E/DX2                !
 ! R8    R(5,8)                  1.0057         estimate D2E/DX2                !
 ! R9    R(6,9)                  1.0057         estimate D2E/DX2                !
 ! R10   R(6,10)                 1.0056         estimate D2E/DX2                !
 ! R11   R(11,12)                1.3038         estimate D2E/DX2                !
 ! R12   R(11,15)                1.3118         estimate D2E/DX2                !
 ! R13   R(11,17)                1.0117         estimate D2E/DX2                !
 ! R14   R(12,13)                1.3024         estimate D2E/DX2                !
 ! R15   R(13,14)                1.3418         estimate D2E/DX2                !
 ! R16   R(14,15)                1.3169         estimate D2E/DX2                !
 ! R17   R(14,16)                1.0769         estimate D2E/DX2                !
 ! A1    A(2,1,5)              119.8275         estimate D2E/DX2                !
 ! A2    A(2,1,6)              119.8712         estimate D2E/DX2                !
 ! A3    A(5,1,6)              120.3004         estimate D2E/DX2                !
 ! A4    A(1,2,3)              123.1057         estimate D2E/DX2                !
 ! A5    A(1,2,4)              120.5265         estimate D2E/DX2                !
 ! A6    A(3,2,4)              116.3668         estimate D2E/DX2                !
 ! A7    A(2,3,15)             115.6193         estimate D2E/DX2                !
 ! A8    A(1,5,7)              120.4569         estimate D2E/DX2                !
 ! A9    A(1,5,8)              121.473          estimate D2E/DX2                !
 ! A10   A(7,5,8)              117.9929         estimate D2E/DX2                !
 ! A11   A(1,6,9)              120.5254         estimate D2E/DX2                !
 ! A12   A(1,6,10)             120.8235         estimate D2E/DX2                !
 ! A13   A(9,6,10)             118.6091         estimate D2E/DX2                !
 ! A14   A(12,11,15)           114.816          estimate D2E/DX2                !
 ! A15   A(12,11,17)           121.3867         estimate D2E/DX2                !
 ! A16   A(15,11,17)           123.7921         estimate D2E/DX2                !
 ! A17   A(11,12,13)           105.8189         estimate D2E/DX2                !
 ! A18   A(12,13,14)           105.9366         estimate D2E/DX2                !
 ! A19   A(13,14,15)           112.5022         estimate D2E/DX2                !
 ! A20   A(13,14,16)           123.6087         estimate D2E/DX2                !
 ! A21   A(15,14,16)           123.8843         estimate D2E/DX2                !
 ! A22   A(3,15,11)            136.902          estimate D2E/DX2                !
 ! A23   A(3,15,14)            119.5593         estimate D2E/DX2                !
 ! A24   A(11,15,14)           100.8921         estimate D2E/DX2                !
 ! D1    D(5,1,2,3)            178.843          estimate D2E/DX2                !
 ! D2    D(5,1,2,4)             -0.7872         estimate D2E/DX2                !
 ! D3    D(6,1,2,3)             -0.815          estimate D2E/DX2                !
 ! D4    D(6,1,2,4)            179.5548         estimate D2E/DX2                !
 ! D5    D(2,1,5,7)              1.0027         estimate D2E/DX2                !
 ! D6    D(2,1,5,8)            177.7443         estimate D2E/DX2                !
 ! D7    D(6,1,5,7)           -179.3407         estimate D2E/DX2                !
 ! D8    D(6,1,5,8)             -2.5992         estimate D2E/DX2                !
 ! D9    D(2,1,6,9)              0.7378         estimate D2E/DX2                !
 ! D10   D(2,1,6,10)           178.3457         estimate D2E/DX2                !
 ! D11   D(5,1,6,9)           -178.9186         estimate D2E/DX2                !
 ! D12   D(5,1,6,10)            -1.3107         estimate D2E/DX2                !
 ! D13   D(1,2,3,15)           174.2693         estimate D2E/DX2                !
 ! D14   D(4,2,3,15)            -6.0863         estimate D2E/DX2                !
 ! D15   D(2,3,15,11)          113.3526         estimate D2E/DX2                !
 ! D16   D(2,3,15,14)          -89.1229         estimate D2E/DX2                !
 ! D17   D(15,11,12,13)         -1.9981         estimate D2E/DX2                !
 ! D18   D(17,11,12,13)        178.798          estimate D2E/DX2                !
 ! D19   D(12,11,15,3)         161.9097         estimate D2E/DX2                !
 ! D20   D(12,11,15,14)          1.7033         estimate D2E/DX2                !
 ! D21   D(17,11,15,3)         -18.9081         estimate D2E/DX2                !
 ! D22   D(17,11,15,14)       -179.1146         estimate D2E/DX2                !
 ! D23   D(11,12,13,14)          1.3276         estimate D2E/DX2                !
 ! D24   D(12,13,14,15)         -0.346          estimate D2E/DX2                !
 ! D25   D(12,13,14,16)        178.8899         estimate D2E/DX2                !
 ! D26   D(13,14,15,3)        -165.3463         estimate D2E/DX2                !
 ! D27   D(13,14,15,11)         -0.772          estimate D2E/DX2                !
 ! D28   D(16,14,15,3)          15.4204         estimate D2E/DX2                !
 ! D29   D(16,14,15,11)        179.9946         estimate D2E/DX2                !
 --------------------------------------------------------------------------------
 Trust Radius=5.00D-02 FncErr=1.00D-07 GrdErr=1.00D-06
 Number of steps in this run=     80 maximum allowed number of steps=    102.
 GradGradGradGradGradGradGradGradGradGradGradGradGradGradGradGradGradGrad

                          Input orientation:                          
 ---------------------------------------------------------------------
 Center     Atomic      Atomic             Coordinates (Angstroms)
 Number     Number       Type             X           Y           Z
 ---------------------------------------------------------------------
      1          6           0        2.889814    0.005524    0.014343
      2          7           0        1.580127   -0.089649    0.172303
      3          1           0        0.942307    0.650930   -0.067480
      4          1           0        1.170738   -0.926283    0.552471
      5          7           0        3.673985   -1.004662    0.374438
      6          7           0        3.415307    1.111934   -0.496666
      7          1           0        3.277619   -1.847878    0.752683
      8          1           0        4.669369   -0.972360    0.234620
      9          1           0        2.826268    1.884979   -0.755360
     10          1           0        4.410818    1.209408   -0.600141
     11          7           0       -2.517757    0.461153    0.888300
     12          7           0       -3.694561    0.173901    0.406073
     13          7           0       -3.477681   -0.385185   -0.750082
     14          6           0       -2.144225   -0.431654   -0.892518
     15          7           0       -1.508955    0.088584    0.137026
     16          1           0       -1.650766   -0.859364   -1.748829
     17          1           0       -2.413134    0.924818    1.781347
 ---------------------------------------------------------------------
                    Distance matrix (angstroms):
                    1          2          3          4          5
     1  C    0.000000
     2  N    1.322607   0.000000
     3  H    2.053297   1.006364   0.000000
     4  H    2.028070   1.006024   1.710006   0.000000
     5  N    1.328559   2.293981   3.224646   2.510794   0.000000
     6  N    1.327184   2.293296   2.551951   3.208287   2.303414
     7  H    2.032397   2.511909   3.517157   2.308326   1.005579
     8  H    2.042448   3.213484   4.076435   3.513342   1.005675
     9  H    2.031953   2.512485   2.354860   3.514882   3.216379
    10  H    2.034792   3.208899   3.553336   4.048186   2.528801
    11  N    5.496656   4.196271   3.594659   3.955092   6.383599
    12  N    6.598166   5.286439   4.685334   4.990288   7.462271
    13  N    6.425106   5.149714   4.590836   4.857698   7.265991
    14  C    5.133719   3.888651   3.373330   3.649881   5.982063
    15  N    4.401263   3.094421   2.523240   2.895394   5.302303
    16  H    4.947087   3.836910   3.439760   3.641613   5.734313
    17  H    5.664686   4.423155   3.840854   4.216734   6.538754
                    6          7          8          9         10
     6  N    0.000000
     7  H    3.215636   0.000000
     8  H    2.540026   1.723917   0.000000
     9  H    1.005728   4.051189   3.541393   0.000000
    10  H    1.005609   3.530052   2.350274   1.729534   0.000000
    11  N    6.127226   6.239904   7.357788   5.769532   7.126043
    12  N    7.228075   7.267670   8.443852   6.840901   8.232977
    13  N    7.058248   7.073320   8.227323   6.700257   8.049449
    14  C    5.783404   5.840271   6.927327   5.485563   6.763665
    15  N    5.069237   5.200020   6.269515   4.776772   6.069874
    16  H    5.578443   5.614597   6.625024   5.344365   6.507081
    17  H    6.260597   6.413319   7.493564   5.899841   7.233173
                   11         12         13         14         15
    11  N    0.000000
    12  N    1.303811   0.000000
    13  N    2.078951   1.302424   0.000000
    14  C    2.026806   2.111061   1.341847   0.000000
    15  N    1.311831   2.203756   2.210724   1.316881   0.000000
    16  H    3.074067   3.144573   2.135406   1.076897   2.115459
    17  H    1.011664   2.024181   3.042614   3.010296   2.054414
                   16         17
    16  H    0.000000
    17  H    4.028232   0.000000
 Stoichiometry    C2H8N7(1+)
 Framework group  C1[X(C2H8N7)]
 Deg. of freedom    45
 Full point group                 C1      NOp   1
 Largest Abelian subgroup         C1      NOp   1
 Largest concise Abelian subgroup C1      NOp   1
                         Standard orientation:                         
 ---------------------------------------------------------------------
 Center     Atomic      Atomic             Coordinates (Angstroms)
 Number     Number       Type             X           Y           Z
 ---------------------------------------------------------------------
      1          6           0       -2.889814    0.005524   -0.014343
      2          7           0       -1.580127   -0.089649   -0.172303
      3          1           0       -0.942307    0.650930    0.067480
      4          1           0       -1.170738   -0.926283   -0.552471
      5          7           0       -3.673985   -1.004662   -0.374438
      6          7           0       -3.415307    1.111934    0.496666
      7          1           0       -3.277619   -1.847878   -0.752683
      8          1           0       -4.669369   -0.972360   -0.234620
      9          1           0       -2.826268    1.884979    0.755360
     10          1           0       -4.410818    1.209408    0.600141
     11          7           0        2.517757    0.461153   -0.888300
     12          7           0        3.694561    0.173901   -0.406073
     13          7           0        3.477681   -0.385185    0.750082
     14          6           0        2.144225   -0.431654    0.892518
     15          7           0        1.508955    0.088584   -0.137026
     16          1           0        1.650766   -0.859364    1.748829
     17          1           0        2.413134    0.924818   -1.781347
 ---------------------------------------------------------------------
 Rotational constants (GHZ):      5.2220120      0.4438108      0.4410701
 Standard basis: def2TZVP (5D, 7F)
 There are   372 symmetry adapted cartesian basis functions of A   symmetry.
 There are   327 symmetry adapted basis functions of A   symmetry.
   327 basis functions,   523 primitive gaussians,   372 cartesian basis functions
    34 alpha electrons       34 beta electrons
       nuclear repulsion energy       420.4471888130 Hartrees.
 NAtoms=   17 NActive=   17 NUniq=   17 SFac= 1.00D+00 NAtFMM=   60 NAOKFM=F Big=F
 Integral buffers will be    131072 words long.
 Raffenetti 2 integral format.
 Two-electron integral symmetry is turned on.
 Nuclear repulsion after empirical dispersion term =      420.4416553601 Hartrees.
 ------------------------------------------------------------------------------
 Polarizable Continuum Model (PCM)
 =================================
 Model                : PCM (using non-symmetric T matrix).
 Atomic radii         : SMD-Coulomb.
 Polarization charges : Total charges.
 Charge compensation  : None.
 Solution method      : On-the-fly selection.
 Cavity type          : VdW (van der Waals Surface) (Alpha=1.000).
 Cavity algorithm     : GePol (No added spheres)
                        Default sphere list used, NSphG=   17.
                        Lebedev-Laikov grids with approx.  5.0 points / Ang**2.
                        Smoothing algorithm: Karplus/York (Gamma=1.0000).
                        Polarization charges: spherical gaussians, with
                                              point-specific exponents (IZeta= 3).
                        Self-potential: point-specific (ISelfS= 7).
                        Self-field    : sphere-specific E.n sum rule (ISelfD= 2).
 1st derivatives      : Analytical E(r).r(x)/FMM algorithm (CHGder, D1EAlg=3).
                        Cavity 1st derivative terms included.
 Solvent              : DiethylEther, Eps=   4.240000 Eps(inf)=   1.829527
 ------------------------------------------------------------------------------
 Spheres list:
 ISph  on   Nord     Re0    Alpha      Xe            Ye            Ze
    1   C      1    1.8500  1.000     -2.889814      0.005524     -0.014343
    2   N      2    1.8900  1.000     -1.580127     -0.089649     -0.172303
    3   H      3    1.2000  1.000     -0.942307      0.650930      0.067480
    4   H      4    1.2000  1.000     -1.170738     -0.926283     -0.552471
    5   N      5    1.8900  1.000     -3.673985     -1.004662     -0.374438
    6   N      6    1.8900  1.000     -3.415307      1.111934      0.496666
    7   H      7    1.2000  1.000     -3.277619     -1.847878     -0.752683
    8   H      8    1.2000  1.000     -4.669369     -0.972360     -0.234620
    9   H      9    1.2000  1.000     -2.826268      1.884979      0.755360
   10   H     10    1.2000  1.000     -4.410818      1.209408      0.600141
   11   N     11    1.8900  1.000      2.517757      0.461153     -0.888300
   12   N     12    1.8900  1.000      3.694561      0.173901     -0.406073
   13   N     13    1.8900  1.000      3.477681     -0.385185      0.750082
   14   C     14    1.8500  1.000      2.144225     -0.431654      0.892518
   15   N     15    1.8900  1.000      1.508955      0.088584     -0.137026
   16   H     16    1.2000  1.000      1.650766     -0.859364      1.748829
   17   H     17    1.2000  1.000      2.413134      0.924818     -1.781347
 ------------------------------------------------------------------------------
 ------------------------------------------------------------------------------
 Atomic radii for non-electrostatic terms: SMD-CDS.
 ------------------------------------------------------------------------------
 Nuclear repulsion after PCM non-electrostatic terms =      420.4378877516 Hartrees.
 One-electron integrals computed using PRISM.
   1 Symmetry operations used in ECPInt.
 ECPInt:  NShTT=    8646 NPrTT=   26328 LenC2=    7684 LenP2D=   17639.
 LDataN:  DoStor=T MaxTD1= 6 Len=  172
 NBasis=   327 RedAO= T EigKep=  2.80D-04  NBF=   327
 NBsUse=   327 1.00D-06 EigRej= -1.00D+00 NBFU=   327
 ExpMin= 9.52D-02 ExpMax= 1.97D+04 ExpMxC= 6.73D+02 IAcc=2 IRadAn=         4 AccDes= 0.00D+00
 Harris functional with IExCor= 4639 and IRadAn=       4 diagonalized for initial guess.
 HarFok:  IExCor= 4639 AccDes= 0.00D+00 IRadAn=         4 IDoV= 1 UseB2=F ITyADJ=14
 ICtDFT=  3500011 ScaDFX=  1.000000  1.000000  1.000000  1.000000
 FoFCou: FMM=F IPFlag=           0 FMFlag=      100000 FMFlg1=           0
         NFxFlg=           0 DoJE=T BraDBF=F KetDBF=T FulRan=T
         wScrn=  0.000000 ICntrl=     500 IOpCl=  0 I1Cent=   200000004 NGrid=           0
         NMat0=    1 NMatS0=      1 NMatT0=    0 NMatD0=    1 NMtDS0=    0 NMtDT0=    0
 Petite list used in FoFCou.
 Keep R1 ints in memory in canonical form, NReq=2902410226.
 Requested convergence on RMS density matrix=1.00D-08 within 128 cycles.
 Requested convergence on MAX density matrix=1.00D-06.
 Requested convergence on             energy=1.00D-06.
 No special actions if energy rises.
 Inv3:  Mode=1 IEnd=     7179627.
 Iteration    1 A*A^-1 deviation from unit magnitude is 4.22D-15 for   1531.
 Iteration    1 A*A^-1 deviation from orthogonality  is 3.09D-15 for   1526    198.
 Iteration    1 A^-1*A deviation from unit magnitude is 4.22D-15 for   1540.
 Iteration    1 A^-1*A deviation from orthogonality  is 2.20D-13 for   1277   1266.
 Error on total polarization charges =  0.01594
 SCF Done:  E(RwB97XD) =  -464.162973909     A.U. after   14 cycles
            NFock= 14  Conv=0.15D-08     -V/T= 2.0044
 SMD-CDS (non-electrostatic) energy       (kcal/mol) =      -2.36
 (included in total energy above)

 **********************************************************************

            Population analysis using the SCF density.

 **********************************************************************

 Orbital symmetries:
       Occupied  (A) (A) (A) (A) (A) (A) (A) (A) (A) (A) (A) (A)
                 (A) (A) (A) (A) (A) (A) (A) (A) (A) (A) (A) (A)
                 (A) (A) (A) (A) (A) (A) (A) (A) (A) (A)
       Virtual   (A) (A) (A) (A) (A) (A) (A) (A) (A) (A) (A) (A)
                 (A) (A) (A) (A) (A) (A) (A) (A) (A) (A) (A) (A)
                 (A) (A) (A) (A) (A) (A) (A) (A) (A) (A) (A) (A)
                 (A) (A) (A) (A) (A) (A) (A) (A) (A) (A) (A) (A)
                 (A) (A) (A) (A) (A) (A) (A) (A) (A) (A) (A) (A)
                 (A) (A) (A) (A) (A) (A) (A) (A) (A) (A) (A) (A)
                 (A) (A) (A) (A) (A) (A) (A) (A) (A) (A) (A) (A)
                 (A) (A) (A) (A) (A) (A) (A) (A) (A) (A) (A) (A)
                 (A) (A) (A) (A) (A) (A) (A) (A) (A) (A) (A) (A)
                 (A) (A) (A) (A) (A) (A) (A) (A) (A) (A) (A) (A)
                 (A) (A) (A) (A) (A) (A) (A) (A) (A) (A) (A) (A)
                 (A) (A) (A) (A) (A) (A) (A) (A) (A) (A) (A) (A)
                 (A) (A) (A) (A) (A) (A) (A) (A) (A) (A) (A) (A)
                 (A) (A) (A) (A) (A) (A) (A) (A) (A) (A) (A) (A)
                 (A) (A) (A) (A) (A) (A) (A) (A) (A) (A) (A) (A)
                 (A) (A) (A) (A) (A) (A) (A) (A) (A) (A) (A) (A)
                 (A) (A) (A) (A) (A) (A) (A) (A) (A) (A) (A) (A)
                 (A) (A) (A) (A) (A) (A) (A) (A) (A) (A) (A) (A)
                 (A) (A) (A) (A) (A) (A) (A) (A) (A) (A) (A) (A)
                 (A) (A) (A) (A) (A) (A) (A) (A) (A) (A) (A) (A)
                 (A) (A) (A) (A) (A) (A) (A) (A) (A) (A) (A) (A)
                 (A) (A) (A) (A) (A) (A) (A) (A) (A) (A) (A) (A)
                 (A) (A) (A) (A) (A) (A) (A) (A) (A) (A) (A) (A)
                 (A) (A) (A) (A) (A) (A) (A) (A) (A) (A) (A) (A)
                 (A) (A) (A) (A) (A)
 The electronic state is 1-A.
 Alpha  occ. eigenvalues --  -14.59073 -14.54528 -14.52010 -14.51527 -14.51521
 Alpha  occ. eigenvalues --  -14.51280 -14.49828 -10.48665 -10.37454  -1.29985
 Alpha  occ. eigenvalues --   -1.17807  -1.08895  -1.05473  -1.05312  -1.02251
 Alpha  occ. eigenvalues --   -0.80931  -0.80354  -0.78730  -0.73508  -0.73346
 Alpha  occ. eigenvalues --   -0.70067  -0.63433  -0.63381  -0.63309  -0.62877
 Alpha  occ. eigenvalues --   -0.59122  -0.58678  -0.50760  -0.44712  -0.44454
 Alpha  occ. eigenvalues --   -0.42097  -0.42000  -0.41974  -0.41526
 Alpha virt. eigenvalues --    0.01595   0.05212   0.06267   0.07161   0.10140
 Alpha virt. eigenvalues --    0.10892   0.11607   0.13042   0.13570   0.15537
 Alpha virt. eigenvalues --    0.17517   0.18583   0.19828   0.21042   0.24841
 Alpha virt. eigenvalues --    0.25887   0.26638   0.27806   0.28511   0.29451
 Alpha virt. eigenvalues --    0.30366   0.32463   0.34222   0.35902   0.35982
 Alpha virt. eigenvalues --    0.37198   0.37550   0.38535   0.38765   0.39757
 Alpha virt. eigenvalues --    0.40192   0.42279   0.43297   0.44504   0.44833
 Alpha virt. eigenvalues --    0.46097   0.47258   0.50017   0.50190   0.51176
 Alpha virt. eigenvalues --    0.51954   0.52499   0.53344   0.53718   0.54959
 Alpha virt. eigenvalues --    0.55479   0.57762   0.59548   0.60131   0.61230
 Alpha virt. eigenvalues --    0.62052   0.62582   0.64154   0.66074   0.67575
 Alpha virt. eigenvalues --    0.69593   0.69640   0.70256   0.70561   0.71843
 Alpha virt. eigenvalues --    0.73105   0.74178   0.76140   0.81195   0.84347
 Alpha virt. eigenvalues --    0.86041   0.87616   0.95586   0.98835   0.99075
 Alpha virt. eigenvalues --    1.04388   1.04668   1.05619   1.05951   1.09820
 Alpha virt. eigenvalues --    1.14845   1.18326   1.19478   1.20410   1.25958
 Alpha virt. eigenvalues --    1.26411   1.33371   1.35861   1.38465   1.39838
 Alpha virt. eigenvalues --    1.43120   1.43974   1.45821   1.46631   1.46898
 Alpha virt. eigenvalues --    1.48268   1.48662   1.49412   1.51234   1.52288
 Alpha virt. eigenvalues --    1.52622   1.53765   1.54048   1.54876   1.56602
 Alpha virt. eigenvalues --    1.60951   1.63191   1.64057   1.64884   1.65657
 Alpha virt. eigenvalues --    1.68581   1.69000   1.70163   1.73451   1.73964
 Alpha virt. eigenvalues --    1.75035   1.76685   1.80295   1.83150   1.86770
 Alpha virt. eigenvalues --    1.87576   1.89882   1.92381   1.92510   1.93784
 Alpha virt. eigenvalues --    1.94828   1.96081   1.97394   2.01895   2.04478
 Alpha virt. eigenvalues --    2.06793   2.07743   2.08544   2.09058   2.10499
 Alpha virt. eigenvalues --    2.12584   2.13383   2.19689   2.20535   2.24535
 Alpha virt. eigenvalues --    2.29782   2.30785   2.31783   2.35896   2.39522
 Alpha virt. eigenvalues --    2.40024   2.41739   2.42271   2.44979   2.45332
 Alpha virt. eigenvalues --    2.45596   2.47698   2.54106   2.57695   2.59523
 Alpha virt. eigenvalues --    2.65057   2.66825   2.69500   2.71078   2.71671
 Alpha virt. eigenvalues --    2.72035   2.75413   2.79639   2.84195   2.84881
 Alpha virt. eigenvalues --    2.89657   2.92056   2.92735   2.93568   2.93644
 Alpha virt. eigenvalues --    2.95841   3.00773   3.02104   3.03699   3.06359
 Alpha virt. eigenvalues --    3.07587   3.13503   3.17410   3.17651   3.18640
 Alpha virt. eigenvalues --    3.21900   3.22585   3.24985   3.26056   3.34355
 Alpha virt. eigenvalues --    3.34476   3.34657   3.37314   3.38794   3.43817
 Alpha virt. eigenvalues --    3.45273   3.51106   3.53279   3.58317   3.59119
 Alpha virt. eigenvalues --    3.62688   3.63183   3.70246   3.73063   3.75813
 Alpha virt. eigenvalues --    3.77051   3.80178   3.83234   3.90077   3.91091
 Alpha virt. eigenvalues --    3.91951   3.94582   3.95350   3.95889   3.97683
 Alpha virt. eigenvalues --    4.00351   4.01402   4.08150   4.18644   4.21157
 Alpha virt. eigenvalues --    4.23138   4.26600   4.27164   4.45800   4.46508
 Alpha virt. eigenvalues --    4.46929   4.54402   4.60760   4.62040   4.62284
 Alpha virt. eigenvalues --    4.62378   4.62677   4.64797   4.69021   4.70930
 Alpha virt. eigenvalues --    4.73984   4.74818   4.75731   4.77125   4.78593
 Alpha virt. eigenvalues --    4.78973   4.79561   4.83048   4.84129   4.86906
 Alpha virt. eigenvalues --    4.89437   4.93329   4.93717   4.96040   4.97207
 Alpha virt. eigenvalues --    4.99036   5.01605   5.03773   5.05870   5.10371
 Alpha virt. eigenvalues --    5.14678   5.15468   5.16606   5.17493   5.17973
 Alpha virt. eigenvalues --    5.22570   5.22799   5.25089   5.25837   5.27159
 Alpha virt. eigenvalues --    5.28937   5.30708   5.30852   5.31472   5.33022
 Alpha virt. eigenvalues --    5.38523   5.40367   5.45793   5.48251   5.53121
 Alpha virt. eigenvalues --    5.56950   5.57730   5.58476   5.63390   5.66917
 Alpha virt. eigenvalues --    5.67065   5.72706   5.85301   5.91664   6.02157
 Alpha virt. eigenvalues --    6.04000   6.09669   6.17106   6.19922   6.24847
 Alpha virt. eigenvalues --    6.40403   6.78449   6.91536   7.09804  22.87740
 Alpha virt. eigenvalues --   23.37992  31.90568  31.93954  31.94053  32.01697
 Alpha virt. eigenvalues --   32.10352  32.21433  32.27326
          Condensed to atoms (all electrons):
               1          2          3          4          5          6
     1  C    4.246688   0.482847  -0.016497  -0.022266   0.475940   0.474887
     2  N    0.482847   6.361484   0.365979   0.371145  -0.064193  -0.063134
     3  H   -0.016497   0.365979   0.338016  -0.016870   0.002544  -0.001313
     4  H   -0.022266   0.371145  -0.016870   0.341873  -0.001269   0.002741
     5  N    0.475940  -0.064193   0.002544  -0.001269   6.375509  -0.061445
     6  N    0.474887  -0.063134  -0.001313   0.002741  -0.061445   6.373305
     7  H   -0.022048  -0.001050   0.000005   0.002042   0.371300   0.002887
     8  H   -0.020485   0.002752  -0.000148   0.000067   0.370795  -0.001618
     9  H   -0.021784  -0.001417   0.001826   0.000041   0.002830   0.371380
    10  H   -0.020961   0.002893   0.000061  -0.000175  -0.001568   0.370867
    11  N   -0.000022   0.000245  -0.000431   0.000030   0.000001   0.000002
    12  N    0.000001  -0.000030   0.000072  -0.000003   0.000000   0.000000
    13  N    0.000000   0.000026   0.000073   0.000016   0.000000   0.000000
    14  C    0.000078   0.000397  -0.000527  -0.000096  -0.000009  -0.000007
    15  N    0.000675  -0.009168   0.009472   0.003384  -0.000022  -0.000081
    16  H    0.000016   0.000587  -0.000098   0.000005  -0.000003  -0.000003
    17  H   -0.000002   0.000070  -0.000016   0.000006   0.000000   0.000000
               7          8          9         10         11         12
     1  C   -0.022048  -0.020485  -0.021784  -0.020961  -0.000022   0.000001
     2  N   -0.001050   0.002752  -0.001417   0.002893   0.000245  -0.000030
     3  H    0.000005  -0.000148   0.001826   0.000061  -0.000431   0.000072
     4  H    0.002042   0.000067   0.000041  -0.000175   0.000030  -0.000003
     5  N    0.371300   0.370795   0.002830  -0.001568   0.000001   0.000000
     6  N    0.002887  -0.001618   0.371380   0.370867   0.000002   0.000000
     7  H    0.338253  -0.015086  -0.000160   0.000022   0.000001   0.000000
     8  H   -0.015086   0.336738   0.000019   0.001720   0.000000   0.000000
     9  H   -0.000160   0.000019   0.336887  -0.014920   0.000001   0.000000
    10  H    0.000022   0.001720  -0.014920   0.337555   0.000000   0.000000
    11  N    0.000001   0.000000   0.000001   0.000000   6.222285   0.287353
    12  N    0.000000   0.000000   0.000000   0.000000   0.287353   6.654099
    13  N    0.000000   0.000000   0.000000   0.000000  -0.092466   0.301075
    14  C    0.000000   0.000000   0.000004   0.000000  -0.138458  -0.063038
    15  N   -0.000024   0.000001  -0.000053  -0.000001   0.296368  -0.060335
    16  H    0.000001   0.000000   0.000001   0.000000   0.004937   0.003681
    17  H    0.000000   0.000000   0.000000   0.000000   0.381194  -0.029151
              13         14         15         16         17
     1  C    0.000000   0.000078   0.000675   0.000016  -0.000002
     2  N    0.000026   0.000397  -0.009168   0.000587   0.000070
     3  H    0.000073  -0.000527   0.009472  -0.000098  -0.000016
     4  H    0.000016  -0.000096   0.003384   0.000005   0.000006
     5  N    0.000000  -0.000009  -0.000022  -0.000003   0.000000
     6  N    0.000000  -0.000007  -0.000081  -0.000003   0.000000
     7  H    0.000000   0.000000  -0.000024   0.000001   0.000000
     8  H    0.000000   0.000000   0.000001   0.000000   0.000000
     9  H    0.000000   0.000004  -0.000053   0.000001   0.000000
    10  H    0.000000   0.000000  -0.000001   0.000000   0.000000
    11  N   -0.092466  -0.138458   0.296368   0.004937   0.381194
    12  N    0.301075  -0.063038  -0.060335   0.003681  -0.029151
    13  N    6.604794   0.477538  -0.059990  -0.021091   0.005200
    14  C    0.477538   4.760080   0.509314   0.417637   0.003323
    15  N   -0.059990   0.509314   6.646316  -0.027349  -0.032802
    16  H   -0.021091   0.417637  -0.027349   0.429351  -0.000137
    17  H    0.005200   0.003323  -0.032802  -0.000137   0.343651
 Mulliken charges:
               1
     1  C    0.442932
     2  N   -0.449433
     3  H    0.317851
     4  H    0.319328
     5  N   -0.470411
     6  N   -0.468469
     7  H    0.323858
     8  H    0.325245
     9  H    0.325345
    10  H    0.324507
    11  N    0.038959
    12  N   -0.093724
    13  N   -0.215176
    14  C    0.033764
    15  N   -0.275706
    16  H    0.192465
    17  H    0.328664
 Sum of Mulliken charges =   1.00000
 Mulliken charges with hydrogens summed into heavy atoms:
               1
     1  C    0.442932
     2  N    0.187747
     5  N    0.178691
     6  N    0.181384
    11  N    0.367623
    12  N   -0.093724
    13  N   -0.215176
    14  C    0.226229
    15  N   -0.275706
 Electronic spatial extent (au):  <R**2>=           2362.1037
 Charge=              1.0000 electrons
 Dipole moment (field-independent basis, Debye):
    X=            -15.2792    Y=              0.9272    Z=             -1.7929  Tot=             15.4119
 Quadrupole moment (field-independent basis, Debye-Ang):
   XX=            -13.7827   YY=            -38.4411   ZZ=            -45.5442
   XY=              4.2238   XZ=             -7.6804   YZ=              2.3574
 Traceless Quadrupole moment (field-independent basis, Debye-Ang):
   XX=             18.8067   YY=             -5.8518   ZZ=            -12.9549
   XY=              4.2238   XZ=             -7.6804   YZ=              2.3574
 Octapole moment (field-independent basis, Debye-Ang**2):
  XXX=           -344.3713  YYY=              3.2062  ZZZ=            -10.7246  XYY=            -37.3832
  XXY=              9.2139  XXZ=            -15.0256  XZZ=              4.8818  YZZ=              3.9802
  YYZ=             -3.5827  XYZ=            -21.7178
 Hexadecapole moment (field-independent basis, Debye-Ang**3):
 XXXX=          -1993.5312 YYYY=           -129.4215 ZZZZ=           -136.4904 XXXY=             56.6573
 XXXZ=           -109.1561 YYYX=             11.1158 YYYZ=             20.3418 ZZZX=            -33.9210
 ZZZY=            -11.1745 XXYY=           -354.7584 XXZZ=           -465.4304 YYZZ=            -41.8212
 XXYZ=             51.1455 YYXZ=            -10.5889 ZZXY=             13.4173
 N-N= 4.204378877516D+02 E-N=-1.912988049699D+03  KE= 4.621089957970D+02
   1 Symmetry operations used in ECPInt.
 ECPInt:  NShTT=    8646 NPrTT=   26328 LenC2=    7684 LenP2D=   17639.
 LDataN:  DoStor=T MaxTD1= 7 Len=  274
 D1PCM: PCM CHGder 1st derivatives, ID1Alg=3 FixD1E=F DoIter=F DoCFld=F I1PDM=0.
 Calling FoFJK, ICntrl=      2127 FMM=F ISym2X=0 I1Cent= 0 IOpClX= 0 NMat=1 NMatS=1 NMatT=0.
 ***** Axes restored to original set *****
 -------------------------------------------------------------------
 Center     Atomic                   Forces (Hartrees/Bohr)
 Number     Number              X              Y              Z
 -------------------------------------------------------------------
      1        6           0.002396083    0.002042104   -0.000448329
      2        7          -0.002825053   -0.003645632    0.001894346
      3        1           0.001018202    0.000691593   -0.000530708
      4        1          -0.000367826    0.000273507    0.000050929
      5        7          -0.001074995    0.000569039   -0.001204920
      6        7           0.000088986   -0.001388953    0.000971533
      7        1           0.000301450   -0.000233241    0.000124375
      8        1          -0.000339172    0.000770200   -0.000173242
      9        1           0.000762629    0.000057990   -0.000335795
     10        1          -0.000249725    0.000615846   -0.000265746
     11        7          -0.001553431   -0.003151904    0.002616852
     12        7           0.001381874    0.004094128   -0.003518041
     13        7          -0.000602383   -0.002383303    0.002335257
     14        6           0.000325803   -0.001314238   -0.000247927
     15        7          -0.000357910    0.003679916   -0.001403294
     16        1           0.000087314    0.000440330    0.000141067
     17        1           0.001008153   -0.001117382   -0.000006358
 -------------------------------------------------------------------
 Cartesian Forces:  Max     0.004094128 RMS     0.001575943

 GradGradGradGradGradGradGradGradGradGradGradGradGradGradGradGradGradGrad
 Berny optimization.
 FormGI is forming the generalized inverse of G from B-inverse, IUseBI=4.
 Internal  Forces:  Max     0.003424853 RMS     0.000921776
 Search for a local minimum.
 Step number   1 out of a maximum of   80
 All quantities printed in internal units (Hartrees-Bohrs-Radians)
 Swapping is turned off.
 Second derivative matrix not updated -- first step.
 ITU=  0
     Eigenvalues ---    0.00230   0.00944   0.02013   0.02156   0.02168
     Eigenvalues ---    0.02493   0.02527   0.02624   0.02637   0.02647
     Eigenvalues ---    0.02655   0.02661   0.02669   0.02694   0.02716
     Eigenvalues ---    0.14719   0.15999   0.15999   0.16000   0.16000
     Eigenvalues ---    0.16000   0.16000   0.16000   0.16000   0.22031
     Eigenvalues ---    0.23830   0.25000   0.25000   0.25000   0.36372
     Eigenvalues ---    0.45695   0.46587   0.46645   0.46695   0.46704
     Eigenvalues ---    0.46716   0.46721   0.50883   0.56242   0.59847
     Eigenvalues ---    0.60176   0.60988   0.61286   0.64607   0.65602
 RFO step:  Lambda=-9.73834601D-04 EMin= 2.30000000D-03
 Linear search not attempted -- option 19 set.
 Iteration  1 RMS(Cart)=  0.05123226 RMS(Int)=  0.00143516
 Iteration  2 RMS(Cart)=  0.00158070 RMS(Int)=  0.00025890
 Iteration  3 RMS(Cart)=  0.00000155 RMS(Int)=  0.00025890
 Iteration  4 RMS(Cart)=  0.00000000 RMS(Int)=  0.00025890
 Variable       Old X    -DE/DX   Delta X   Delta X   Delta X     New X
                                 (Linear)    (Quad)   (Total)
    R1        2.49937   0.00218   0.00000   0.00355   0.00355   2.50292
    R2        2.51061  -0.00180   0.00000  -0.00301  -0.00301   2.50761
    R3        2.50801  -0.00054   0.00000  -0.00090  -0.00090   2.50711
    R4        1.90175   0.00011   0.00000   0.00024   0.00024   1.90199
    R5        1.90111  -0.00005   0.00000  -0.00012  -0.00012   1.90099
    R6        4.76823  -0.00038   0.00000  -0.01790  -0.01790   4.75033
    R7        1.90027   0.00015   0.00000   0.00031   0.00031   1.90058
    R8        1.90045  -0.00030   0.00000  -0.00064  -0.00064   1.89981
    R9        1.90055  -0.00034   0.00000  -0.00072  -0.00072   1.89983
   R10        1.90033  -0.00015   0.00000  -0.00033  -0.00033   1.90000
   R11        2.46385  -0.00067   0.00000  -0.00102  -0.00123   2.46262
   R12        2.47900  -0.00041   0.00000  -0.00081  -0.00092   2.47808
   R13        1.91177  -0.00043   0.00000  -0.00094  -0.00094   1.91083
   R14        2.46122  -0.00084   0.00000  -0.00109  -0.00113   2.46010
   R15        2.53572   0.00019   0.00000   0.00045   0.00064   2.53636
   R16        2.48855   0.00009   0.00000   0.00004   0.00020   2.48874
   R17        2.03504  -0.00023   0.00000  -0.00064  -0.00064   2.03440
    A1        2.09138   0.00058   0.00000   0.00230   0.00230   2.09368
    A2        2.09215   0.00095   0.00000   0.00378   0.00377   2.09592
    A3        2.09964  -0.00152   0.00000  -0.00604  -0.00605   2.09359
    A4        2.14860  -0.00342   0.00000  -0.02126  -0.02127   2.12733
    A5        2.10358   0.00214   0.00000   0.01332   0.01331   2.11690
    A6        2.03098   0.00128   0.00000   0.00799   0.00797   2.03896
    A7        2.01794   0.00118   0.00000   0.00470   0.00470   2.02264
    A8        2.10237   0.00096   0.00000   0.00605   0.00604   2.10841
    A9        2.12010  -0.00120   0.00000  -0.00738  -0.00739   2.11271
   A10        2.05937   0.00026   0.00000   0.00170   0.00169   2.06105
   A11        2.10356   0.00053   0.00000   0.00338   0.00337   2.10693
   A12        2.10877   0.00038   0.00000   0.00243   0.00242   2.11118
   A13        2.07012  -0.00090   0.00000  -0.00547  -0.00548   2.06464
   A14        2.00392  -0.00039   0.00000  -0.00208  -0.00330   2.00062
   A15        2.11860   0.00118   0.00000   0.00743   0.00751   2.12610
   A16        2.16058  -0.00078   0.00000  -0.00473  -0.00465   2.15593
   A17        1.84689   0.00075   0.00000   0.00357   0.00233   1.84922
   A18        1.84894  -0.00021   0.00000   0.00006  -0.00068   1.84826
   A19        1.96353  -0.00040   0.00000  -0.00190  -0.00224   1.96129
   A20        2.15738   0.00044   0.00000   0.00249   0.00265   2.16003
   A21        2.16219  -0.00004   0.00000  -0.00051  -0.00035   2.16184
   A22        2.38939  -0.00015   0.00000   0.00332   0.00332   2.39271
   A23        2.08670   0.00009   0.00000   0.00520   0.00524   2.09194
   A24        1.76090   0.00033   0.00000   0.00357   0.00273   1.76363
    D1        3.12140   0.00043   0.00000   0.01652   0.01654   3.13794
    D2       -0.01374   0.00021   0.00000   0.00662   0.00662  -0.00712
    D3       -0.01422   0.00024   0.00000   0.00930   0.00929  -0.00493
    D4        3.13382   0.00002   0.00000  -0.00061  -0.00063   3.13319
    D5        0.01750  -0.00019   0.00000  -0.00674  -0.00673   0.01077
    D6        3.10222   0.00003   0.00000   0.00104   0.00105   3.10327
    D7       -3.13009   0.00002   0.00000   0.00055   0.00054  -3.12954
    D8       -0.04536   0.00023   0.00000   0.00833   0.00832  -0.03704
    D9        0.01288  -0.00012   0.00000  -0.00451  -0.00451   0.00836
   D10        3.11272   0.00014   0.00000   0.00507   0.00506   3.11778
   D11       -3.12272  -0.00033   0.00000  -0.01180  -0.01179  -3.13451
   D12       -0.02288  -0.00006   0.00000  -0.00222  -0.00222  -0.02509
   D13        3.04157  -0.00024   0.00000  -0.01777  -0.01776   3.02381
   D14       -0.10623  -0.00003   0.00000  -0.00822  -0.00823  -0.11446
   D15        1.97838  -0.00038   0.00000   0.04186   0.04189   2.02027
   D16       -1.55549   0.00082   0.00000   0.09246   0.09244  -1.46305
   D17       -0.03487   0.00246   0.00000   0.09510   0.09508   0.06021
   D18        3.12061   0.00123   0.00000   0.04758   0.04736  -3.11521
   D19        2.82586  -0.00091   0.00000  -0.03151  -0.03145   2.79441
   D20        0.02973  -0.00195   0.00000  -0.07634  -0.07629  -0.04656
   D21       -0.33001   0.00037   0.00000   0.01741   0.01731  -0.31270
   D22       -3.12614  -0.00067   0.00000  -0.02742  -0.02753   3.12951
   D23        0.02317  -0.00179   0.00000  -0.06788  -0.06801  -0.04484
   D24       -0.00604   0.00070   0.00000   0.02470   0.02469   0.01865
   D25        3.12222   0.00084   0.00000   0.03114   0.03115  -3.12982
   D26       -2.88584  -0.00005   0.00000  -0.00558  -0.00562  -2.89146
   D27       -0.01347   0.00069   0.00000   0.02896   0.02900   0.01553
   D28        0.26914  -0.00020   0.00000  -0.01207  -0.01211   0.25702
   D29        3.14150   0.00054   0.00000   0.02246   0.02251  -3.11918
         Item               Value     Threshold  Converged?
 Maximum Force            0.003425     0.000450     NO 
 RMS     Force            0.000922     0.000300     NO 
 Maximum Displacement     0.158739     0.001800     NO 
 RMS     Displacement     0.051335     0.001200     NO 
 Predicted change in Energy=-5.062134D-04
 GradGradGradGradGradGradGradGradGradGradGradGradGradGradGradGradGradGrad

                          Input orientation:                          
 ---------------------------------------------------------------------
 Center     Atomic      Atomic             Coordinates (Angstroms)
 Number     Number       Type             X           Y           Z
 ---------------------------------------------------------------------
      1          6           0        2.882051    0.000871    0.020254
      2          7           0        1.573787   -0.107923    0.195975
      3          1           0        0.943164    0.644513   -0.025791
      4          1           0        1.163534   -0.952695    0.556545
      5          7           0        3.678872   -1.014171    0.329462
      6          7           0        3.396800    1.122857   -0.465886
      7          1           0        3.301413   -1.874222    0.689130
      8          1           0        4.670441   -0.961546    0.172239
      9          1           0        2.804417    1.901175   -0.698316
     10          1           0        4.389627    1.227168   -0.585538
     11          7           0       -2.526757    0.496786    0.871643
     12          7           0       -3.693744    0.243740    0.349779
     13          7           0       -3.459160   -0.410226   -0.751154
     14          6           0       -2.123213   -0.469739   -0.865881
     15          7           0       -1.507062    0.109139    0.143925
     16          1           0       -1.613812   -0.943365   -1.687567
     17          1           0       -2.431083    0.981834    1.753707
 ---------------------------------------------------------------------
                    Distance matrix (angstroms):
                    1          2          3          4          5
     1  C    0.000000
     2  N    1.324488   0.000000
     3  H    2.043448   1.006492   0.000000
     4  H    2.037203   1.005961   1.714279   0.000000
     5  N    1.326968   2.295755   3.218934   2.526316   0.000000
     6  N    1.326708   2.297011   2.538273   3.215706   2.297615
     7  H    2.034510   2.519466   3.523703   2.331806   1.005745
     8  H    2.036587   3.212243   4.063402   3.527913   1.005335
     9  H    2.033108   2.520056   2.344303   3.523032   3.212514
    10  H    2.035578   3.212816   3.539903   4.057565   2.523093
    11  N    5.497817   4.199602   3.587138   3.977251   6.409897
    12  N    6.588524   5.281496   4.669324   5.006731   7.479186
    13  N    6.401173   5.130204   4.584657   4.834630   7.244583
    14  C    5.104838   3.863451   3.368972   3.613758   5.948903
    15  N    4.392189   3.088924   2.513768   2.903416   5.309440
    16  H    4.901124   3.795587   3.438166   3.570683   5.664444
    17  H    5.674199   4.433180   3.829614   4.254042   6.583621
                    6          7          8          9         10
     6  N    0.000000
     7  H    3.213354   0.000000
     8  H    2.524698   1.724642   0.000000
     9  H    1.005346   4.052855   3.526342   0.000000
    10  H    1.005436   3.525281   2.333142   1.726237   0.000000
    11  N    6.104873   6.294645   7.376690   5.732233   7.105857
    12  N    7.191243   7.316636   8.452445   6.787613   8.196514
    13  N    7.031068   7.065625   8.200428   6.676658   8.019473
    14  C    5.759072   5.815256   6.890088   5.470909   6.736110
    15  N    5.044537   5.229952   6.269666   4.744430   6.045911
    16  H    5.555900   5.538468   6.553705   5.347035   6.478192
    17  H    6.237845   6.492449   7.530565   5.853894   7.214870
                   11         12         13         14         15
    11  N    0.000000
    12  N    1.303163   0.000000
    13  N    2.079788   1.301828   0.000000
    14  C    2.028794   2.110319   1.342184   0.000000
    15  N    1.311344   2.200471   2.209433   1.316985   0.000000
    16  H    3.075233   3.144219   2.136917   1.076559   2.115070
    17  H    1.011169   2.027341   3.044520   3.010662   2.051052
                   16         17
    16  H    0.000000
    17  H    4.026995   0.000000
 Stoichiometry    C2H8N7(1+)
 Framework group  C1[X(C2H8N7)]
 Deg. of freedom    45
 Full point group                 C1      NOp   1
 Largest Abelian subgroup         C1      NOp   1
 Largest concise Abelian subgroup C1      NOp   1
                         Standard orientation:                         
 ---------------------------------------------------------------------
 Center     Atomic      Atomic             Coordinates (Angstroms)
 Number     Number       Type             X           Y           Z
 ---------------------------------------------------------------------
      1          6           0       -2.881781    0.011375   -0.017233
      2          7           0       -1.574223   -0.072687   -0.210866
      3          1           0       -0.940212    0.631801    0.127885
      4          1           0       -1.167942   -0.849920   -0.703616
      5          7           0       -3.683188   -0.937573   -0.484233
      6          7           0       -3.391246    1.042378    0.644306
      7          1           0       -3.309762   -1.729905   -0.978486
      8          1           0       -4.674310   -0.907174   -0.318552
      9          1           0       -2.795354    1.770838    0.997828
     10          1           0       -4.383468    1.129842    0.781232
     11          7           0        2.527804    0.617303   -0.788747
     12          7           0        3.694481    0.279066   -0.316842
     13          7           0        3.458776   -0.542770    0.664883
     14          6           0        2.122760   -0.614887    0.771271
     15          7           0        1.507558    0.121408   -0.130863
     16          1           0        1.612585   -1.212717    1.507001
     17          1           0        2.432871    1.238436   -1.580986
 ---------------------------------------------------------------------
 Rotational constants (GHZ):      5.2232036      0.4470495      0.4414830
 Standard basis: def2TZVP (5D, 7F)
 There are   372 symmetry adapted cartesian basis functions of A   symmetry.
 There are   327 symmetry adapted basis functions of A   symmetry.
   327 basis functions,   523 primitive gaussians,   372 cartesian basis functions
    34 alpha electrons       34 beta electrons
       nuclear repulsion energy       420.7608864442 Hartrees.
 NAtoms=   17 NActive=   17 NUniq=   17 SFac= 1.00D+00 NAtFMM=   60 NAOKFM=F Big=F
 Integral buffers will be    131072 words long.
 Raffenetti 2 integral format.
 Two-electron integral symmetry is turned on.
 Nuclear repulsion after empirical dispersion term =      420.7553348972 Hartrees.
 ------------------------------------------------------------------------------
 Polarizable Continuum Model (PCM)
 =================================
 Model                : PCM (using non-symmetric T matrix).
 Atomic radii         : SMD-Coulomb.
 Polarization charges : Total charges.
 Charge compensation  : None.
 Solution method      : On-the-fly selection.
 Cavity type          : VdW (van der Waals Surface) (Alpha=1.000).
 Cavity algorithm     : GePol (No added spheres)
                        Default sphere list used, NSphG=   17.
                        Lebedev-Laikov grids with approx.  5.0 points / Ang**2.
                        Smoothing algorithm: Karplus/York (Gamma=1.0000).
                        Polarization charges: spherical gaussians, with
                                              point-specific exponents (IZeta= 3).
                        Self-potential: point-specific (ISelfS= 7).
                        Self-field    : sphere-specific E.n sum rule (ISelfD= 2).
 1st derivatives      : Analytical E(r).r(x)/FMM algorithm (CHGder, D1EAlg=3).
                        Cavity 1st derivative terms included.
 Solvent              : DiethylEther, Eps=   4.240000 Eps(inf)=   1.829527
 ------------------------------------------------------------------------------
 Spheres list:
 ISph  on   Nord     Re0    Alpha      Xe            Ye            Ze
    1   C      1    1.8500  1.000     -2.881781      0.011375     -0.017233
    2   N      2    1.8900  1.000     -1.574223     -0.072687     -0.210866
    3   H      3    1.2000  1.000     -0.940212      0.631801      0.127885
    4   H      4    1.2000  1.000     -1.167942     -0.849920     -0.703616
    5   N      5    1.8900  1.000     -3.683188     -0.937573     -0.484233
    6   N      6    1.8900  1.000     -3.391246      1.042378      0.644306
    7   H      7    1.2000  1.000     -3.309762     -1.729905     -0.978486
    8   H      8    1.2000  1.000     -4.674310     -0.907174     -0.318552
    9   H      9    1.2000  1.000     -2.795354      1.770838      0.997828
   10   H     10    1.2000  1.000     -4.383468      1.129842      0.781232
   11   N     11    1.8900  1.000      2.527804      0.617303     -0.788747
   12   N     12    1.8900  1.000      3.694481      0.279066     -0.316842
   13   N     13    1.8900  1.000      3.458776     -0.542770      0.664883
   14   C     14    1.8500  1.000      2.122760     -0.614887      0.771271
   15   N     15    1.8900  1.000      1.507558      0.121408     -0.130863
   16   H     16    1.2000  1.000      1.612585     -1.212717      1.507001
   17   H     17    1.2000  1.000      2.432871      1.238436     -1.580986
 ------------------------------------------------------------------------------
 ------------------------------------------------------------------------------
 Atomic radii for non-electrostatic terms: SMD-CDS.
 ------------------------------------------------------------------------------
 Nuclear repulsion after PCM non-electrostatic terms =      420.7513843531 Hartrees.
 One-electron integrals computed using PRISM.
   1 Symmetry operations used in ECPInt.
 ECPInt:  NShTT=    8646 NPrTT=   26328 LenC2=    7694 LenP2D=   17664.
 LDataN:  DoStor=T MaxTD1= 6 Len=  172
 NBasis=   327 RedAO= T EigKep=  2.82D-04  NBF=   327
 NBsUse=   327 1.00D-06 EigRej= -1.00D+00 NBFU=   327
 Initial guess from the checkpoint file:  "/lscratch/anb28780/285284.sapelo2/Gau-90187.chk"
 B after Tr=     0.000000    0.000000    0.000000
         Rot=    0.996537   -0.083150    0.000274    0.001008 Ang=  -9.54 deg.
 ExpMin= 9.52D-02 ExpMax= 1.97D+04 ExpMxC= 6.73D+02 IAcc=2 IRadAn=         4 AccDes= 0.00D+00
 Harris functional with IExCor= 4639 and IRadAn=       4 diagonalized for initial guess.
 HarFok:  IExCor= 4639 AccDes= 0.00D+00 IRadAn=         4 IDoV= 1 UseB2=F ITyADJ=14
 ICtDFT=  3500011 ScaDFX=  1.000000  1.000000  1.000000  1.000000
 FoFCou: FMM=F IPFlag=           0 FMFlag=      100000 FMFlg1=           0
         NFxFlg=           0 DoJE=T BraDBF=F KetDBF=T FulRan=T
         wScrn=  0.000000 ICntrl=     500 IOpCl=  0 I1Cent=   200000004 NGrid=           0
         NMat0=    1 NMatS0=      1 NMatT0=    0 NMatD0=    1 NMtDS0=    0 NMtDT0=    0
 Petite list used in FoFCou.
 Keep R1 ints in memory in canonical form, NReq=2902410226.
 Requested convergence on RMS density matrix=1.00D-08 within 128 cycles.
 Requested convergence on MAX density matrix=1.00D-06.
 Requested convergence on             energy=1.00D-06.
 No special actions if energy rises.
 Inv3:  Mode=1 IEnd=     7114800.
 Iteration    1 A*A^-1 deviation from unit magnitude is 6.88D-15 for   1538.
 Iteration    1 A*A^-1 deviation from orthogonality  is 2.77D-15 for   1516    181.
 Iteration    1 A^-1*A deviation from unit magnitude is 6.88D-15 for   1538.
 Iteration    1 A^-1*A deviation from orthogonality  is 3.70D-14 for   1317   1315.
 Error on total polarization charges =  0.01564
 SCF Done:  E(RwB97XD) =  -464.163008339     A.U. after   11 cycles
            NFock= 11  Conv=0.36D-08     -V/T= 2.0044
 SMD-CDS (non-electrostatic) energy       (kcal/mol) =      -2.48
 (included in total energy above)
   1 Symmetry operations used in ECPInt.
 ECPInt:  NShTT=    8646 NPrTT=   26328 LenC2=    7694 LenP2D=   17664.
 LDataN:  DoStor=T MaxTD1= 7 Len=  274
 D1PCM: PCM CHGder 1st derivatives, ID1Alg=3 FixD1E=F DoIter=F DoCFld=F I1PDM=0.
 Calling FoFJK, ICntrl=      2127 FMM=F ISym2X=0 I1Cent= 0 IOpClX= 0 NMat=1 NMatS=1 NMatT=0.
 ***** Axes restored to original set *****
 -------------------------------------------------------------------
 Center     Atomic                   Forces (Hartrees/Bohr)
 Number     Number              X              Y              Z
 -------------------------------------------------------------------
      1        6           0.000709711   -0.000934734   -0.001276642
      2        7          -0.000950999   -0.000054893    0.000920161
      3        1          -0.000321164   -0.000276690    0.000245816
      4        1           0.000315674    0.000198496    0.000014288
      5        7          -0.000361322    0.000170363    0.000584702
      6        7          -0.000108476   -0.000191782   -0.000077451
      7        1           0.000274719    0.000127073   -0.000029339
      8        1           0.000095962    0.000222065    0.000033828
      9        1           0.000126751    0.000191275   -0.000039840
     10        1          -0.000123132    0.000226238   -0.000250028
     11        7          -0.000964255    0.006212824   -0.004198232
     12        7          -0.000897263   -0.008074729    0.004377797
     13        7          -0.000019523    0.005486273   -0.002533429
     14        6          -0.000002420   -0.000557590    0.000658684
     15        7           0.001404234   -0.004262718    0.002277635
     16        1           0.000280973    0.000419548   -0.000141710
     17        1           0.000540530    0.001098979   -0.000566241
 -------------------------------------------------------------------
 Cartesian Forces:  Max     0.008074729 RMS     0.002043862

 GradGradGradGradGradGradGradGradGradGradGradGradGradGradGradGradGradGrad
 Berny optimization.
 FormGI is forming the generalized inverse of G from B-inverse, IUseBI=4.
 Internal  Forces:  Max     0.004344499 RMS     0.001006831
 Search for a local minimum.
 Step number   2 out of a maximum of   80
 All quantities printed in internal units (Hartrees-Bohrs-Radians)
 Swapping is turned off.
 Update second derivatives using D2CorX and points    1    2
 DE= -3.44D-05 DEPred=-5.06D-04 R= 6.80D-02
 Trust test= 6.80D-02 RLast= 1.99D-01 DXMaxT set to 5.00D-02
 ITU= -1  0
     Eigenvalues ---    0.00238   0.00907   0.01984   0.02148   0.02167
     Eigenvalues ---    0.02489   0.02607   0.02636   0.02640   0.02654
     Eigenvalues ---    0.02655   0.02667   0.02668   0.02713   0.07074
     Eigenvalues ---    0.13872   0.15092   0.15994   0.16000   0.16000
     Eigenvalues ---    0.16000   0.16000   0.16000   0.16035   0.22107
     Eigenvalues ---    0.23862   0.24637   0.25000   0.25254   0.36371
     Eigenvalues ---    0.45688   0.46585   0.46645   0.46691   0.46703
     Eigenvalues ---    0.46714   0.46726   0.50859   0.56213   0.59559
     Eigenvalues ---    0.60175   0.60966   0.61045   0.64565   0.65576
 RFO step:  Lambda=-8.72572373D-04 EMin= 2.38109301D-03
 Linear search not attempted -- option 19 set.
 Iteration  1 RMS(Cart)=  0.04696323 RMS(Int)=  0.00080118
 Iteration  2 RMS(Cart)=  0.00110704 RMS(Int)=  0.00008356
 Iteration  3 RMS(Cart)=  0.00000034 RMS(Int)=  0.00008356
 Variable       Old X    -DE/DX   Delta X   Delta X   Delta X     New X
                                 (Linear)    (Quad)   (Total)
    R1        2.50292   0.00071   0.00000   0.00130   0.00130   2.50422
    R2        2.50761  -0.00022   0.00000  -0.00082  -0.00082   2.50678
    R3        2.50711   0.00024   0.00000  -0.00001  -0.00001   2.50710
    R4        1.90199   0.00009   0.00000   0.00014   0.00014   1.90213
    R5        1.90099  -0.00028   0.00000  -0.00030  -0.00030   1.90070
    R6        4.75033  -0.00044   0.00000  -0.01368  -0.01368   4.73665
    R7        1.90058  -0.00021   0.00000  -0.00013  -0.00013   1.90045
    R8        1.89981   0.00010   0.00000  -0.00005  -0.00005   1.89976
    R9        1.89983   0.00007   0.00000  -0.00009  -0.00009   1.89974
   R10        1.90000  -0.00007   0.00000  -0.00014  -0.00014   1.89986
   R11        2.46262   0.00026   0.00000   0.00000  -0.00006   2.46256
   R12        2.47808   0.00040   0.00000   0.00027   0.00026   2.47834
   R13        1.91083   0.00007   0.00000  -0.00013  -0.00013   1.91070
   R14        2.46010  -0.00035   0.00000  -0.00061  -0.00064   2.45946
   R15        2.53636   0.00041   0.00000   0.00030   0.00034   2.53670
   R16        2.48874  -0.00041   0.00000  -0.00022  -0.00016   2.48858
   R17        2.03440   0.00007   0.00000  -0.00006  -0.00006   2.03435
    A1        2.09368   0.00082   0.00000   0.00198   0.00198   2.09566
    A2        2.09592  -0.00073   0.00000  -0.00048  -0.00048   2.09543
    A3        2.09359  -0.00009   0.00000  -0.00149  -0.00149   2.09210
    A4        2.12733  -0.00117   0.00000  -0.00796  -0.00797   2.11936
    A5        2.11690   0.00039   0.00000   0.00400   0.00399   2.12089
    A6        2.03896   0.00078   0.00000   0.00395   0.00394   2.04290
    A7        2.02264   0.00177   0.00000   0.00422   0.00422   2.02685
    A8        2.10841   0.00037   0.00000   0.00236   0.00236   2.11078
    A9        2.11271  -0.00034   0.00000  -0.00257  -0.00257   2.11014
   A10        2.06105  -0.00002   0.00000   0.00032   0.00032   2.06137
   A11        2.10693   0.00007   0.00000   0.00094   0.00094   2.10787
   A12        2.11118   0.00024   0.00000   0.00121   0.00121   2.11239
   A13        2.06464  -0.00032   0.00000  -0.00211  -0.00211   2.06253
   A14        2.00062   0.00064   0.00000   0.00203   0.00164   2.00226
   A15        2.12610   0.00019   0.00000   0.00212   0.00210   2.12821
   A16        2.15593  -0.00075   0.00000  -0.00321  -0.00322   2.15271
   A17        1.84922  -0.00050   0.00000   0.00027  -0.00015   1.84907
   A18        1.84826   0.00036   0.00000   0.00077   0.00050   1.84876
   A19        1.96129   0.00019   0.00000   0.00070   0.00057   1.96186
   A20        2.16003   0.00020   0.00000   0.00084   0.00087   2.16090
   A21        2.16184  -0.00038   0.00000  -0.00146  -0.00143   2.16042
   A22        2.39271   0.00068   0.00000  -0.00036  -0.00035   2.39235
   A23        2.09194  -0.00060   0.00000  -0.00396  -0.00394   2.08800
   A24        1.76363  -0.00044   0.00000  -0.00061  -0.00082   1.76281
    D1        3.13794  -0.00028   0.00000  -0.00035  -0.00035   3.13760
    D2       -0.00712  -0.00048   0.00000  -0.00666  -0.00666  -0.01378
    D3       -0.00493  -0.00007   0.00000   0.00149   0.00149  -0.00344
    D4        3.13319  -0.00027   0.00000  -0.00483  -0.00483   3.12837
    D5        0.01077   0.00013   0.00000   0.00065   0.00065   0.01142
    D6        3.10327   0.00019   0.00000   0.00341   0.00341   3.10667
    D7       -3.12954  -0.00008   0.00000  -0.00118  -0.00118  -3.13073
    D8       -0.03704  -0.00002   0.00000   0.00158   0.00158  -0.03547
    D9        0.00836   0.00001   0.00000  -0.00093  -0.00093   0.00743
   D10        3.11778  -0.00004   0.00000   0.00056   0.00056   3.11834
   D11       -3.13451   0.00022   0.00000   0.00090   0.00090  -3.13361
   D12       -0.02509   0.00018   0.00000   0.00239   0.00239  -0.02270
   D13        3.02381  -0.00108   0.00000  -0.04958  -0.04958   2.97423
   D14       -0.11446  -0.00089   0.00000  -0.04354  -0.04354  -0.15800
   D15        2.02027   0.00055   0.00000  -0.01998  -0.01997   2.00030
   D16       -1.46305  -0.00130   0.00000  -0.04384  -0.04385  -1.50690
   D17        0.06021  -0.00434   0.00000  -0.05392  -0.05394   0.00627
   D18       -3.11521  -0.00203   0.00000  -0.02396  -0.02391  -3.13912
   D19        2.79441   0.00147   0.00000   0.01745   0.01743   2.81184
   D20       -0.04656   0.00317   0.00000   0.03891   0.03892  -0.00764
   D21       -0.31270  -0.00091   0.00000  -0.01321  -0.01320  -0.32590
   D22        3.12951   0.00078   0.00000   0.00826   0.00830   3.13781
   D23       -0.04484   0.00344   0.00000   0.04297   0.04297  -0.00187
   D24        0.01865  -0.00167   0.00000  -0.02153  -0.02155  -0.00290
   D25       -3.12982  -0.00101   0.00000  -0.00957  -0.00957  -3.13939
   D26       -2.89146   0.00023   0.00000   0.00673   0.00672  -2.88473
   D27        0.01553  -0.00082   0.00000  -0.00936  -0.00934   0.00619
   D28        0.25702  -0.00043   0.00000  -0.00525  -0.00526   0.25176
   D29       -3.11918  -0.00148   0.00000  -0.02134  -0.02133  -3.14050
         Item               Value     Threshold  Converged?
 Maximum Force            0.004344     0.000450     NO 
 RMS     Force            0.001007     0.000300     NO 
 Maximum Displacement     0.151800     0.001800     NO 
 RMS     Displacement     0.047044     0.001200     NO 
 Predicted change in Energy=-4.432314D-04
 GradGradGradGradGradGradGradGradGradGradGradGradGradGradGradGradGradGrad

                          Input orientation:                          
 ---------------------------------------------------------------------
 Center     Atomic      Atomic             Coordinates (Angstroms)
 Number     Number       Type             X           Y           Z
 ---------------------------------------------------------------------
      1          6           0        2.877187   -0.005767    0.027822
      2          7           0        1.573801   -0.110989    0.242770
      3          1           0        0.941948    0.638479    0.014232
      4          1           0        1.171036   -0.945707    0.633500
      5          7           0        3.686033   -1.008675    0.343464
      6          7           0        3.375776    1.103203   -0.502960
      7          1           0        3.324337   -1.860094    0.737984
      8          1           0        4.672655   -0.954116    0.158399
      9          1           0        2.776146    1.874189   -0.740973
     10          1           0        4.364353    1.206492   -0.653968
     11          7           0       -2.528895    0.474213    0.876126
     12          7           0       -3.692313    0.214800    0.349521
     13          7           0       -3.447841   -0.369667   -0.787363
     14          6           0       -2.110814   -0.431289   -0.889843
     15          7           0       -1.502621    0.101419    0.149648
     16          1           0       -1.593650   -0.863036   -1.729517
     17          1           0       -2.437864    0.930743    1.773686
 ---------------------------------------------------------------------
                    Distance matrix (angstroms):
                    1          2          3          4          5
     1  C    0.000000
     2  N    1.325175   0.000000
     3  H    2.039703   1.006564   0.000000
     4  H    2.039922   1.005805   1.716280   0.000000
     5  N    1.326532   2.297281   3.217377   2.532449   0.000000
     6  N    1.326701   2.297279   2.531201   3.217212   2.296241
     7  H    2.035387   2.523684   3.527387   2.341736   1.005676
     8  H    2.034729   3.212612   4.058980   3.533713   1.005310
     9  H    2.033591   2.520777   2.337006   3.523829   3.211667
    10  H    2.036191   3.213577   3.532986   4.060395   2.522292
    11  N    5.493243   4.192341   3.580027   3.970457   6.411553
    12  N    6.581068   5.277262   4.665650   5.007951   7.479098
    13  N    6.387717   5.132736   4.574840   4.866693   7.251156
    14  C    5.089531   3.868048   3.358736   3.654550   5.954650
    15  N    4.382813   3.085152   2.506529   2.911877   5.309614
    16  H    4.879706   3.806342   3.424100   3.637880   5.673933
    17  H    5.672289   4.418413   3.821548   4.224363   6.580957
                    6          7          8          9         10
     6  N    0.000000
     7  H    3.213054   0.000000
     8  H    2.520288   1.724726   0.000000
     9  H    1.005299   4.053726   3.522062   0.000000
    10  H    1.005364   3.524644   2.328779   1.725048   0.000000
    11  N    6.096118   6.303047   7.376827   5.720000   7.098894
    12  N    7.174529   7.327309   8.448406   6.766366   8.179261
    13  N    6.986558   7.100032   8.196249   6.616272   7.970725
    14  C    5.710255   5.850826   6.883865   5.405531   6.683244
    15  N    5.022771   5.243395   6.264843   4.716330   6.023983
    16  H    5.483223   5.591894   6.545158   5.250213   6.398246
    17  H    6.245901   6.485708   7.531356   5.865109   7.227704
                   11         12         13         14         15
    11  N    0.000000
    12  N    1.303130   0.000000
    13  N    2.079373   1.301488   0.000000
    14  C    2.028146   2.110591   1.342365   0.000000
    15  N    1.311482   2.201716   2.209931   1.316898   0.000000
    16  H    3.074459   3.144601   2.137544   1.076530   2.114172
    17  H    1.011098   2.028413   3.044682   3.009399   2.049379
                   16         17
    16  H    0.000000
    17  H    4.025267   0.000000
 Stoichiometry    C2H8N7(1+)
 Framework group  C1[X(C2H8N7)]
 Deg. of freedom    45
 Full point group                 C1      NOp   1
 Largest Abelian subgroup         C1      NOp   1
 Largest concise Abelian subgroup C1      NOp   1
                         Standard orientation:                         
 ---------------------------------------------------------------------
 Center     Atomic      Atomic             Coordinates (Angstroms)
 Number     Number       Type             X           Y           Z
 ---------------------------------------------------------------------
      1          6           0       -2.876335    0.010174   -0.022296
      2          7           0       -1.574337   -0.093363   -0.246281
      3          1           0       -0.936997    0.641099    0.013591
      4          1           0       -1.178144   -0.912115   -0.675606
      5          7           0       -3.692556   -0.972439   -0.379985
      6          7           0       -3.366156    1.097180    0.559623
      7          1           0       -3.337549   -1.807449   -0.813705
      8          1           0       -4.678216   -0.920137   -0.189230
      9          1           0       -2.760871    1.852911    0.830041
     10          1           0       -4.353569    1.199708    0.718556
     11          7           0        2.529969    0.494246   -0.866853
     12          7           0        3.693380    0.204132   -0.356503
     13          7           0        3.448808   -0.429439    0.753742
     14          6           0        2.111748   -0.487297    0.857977
     15          7           0        1.503657    0.095487   -0.154351
     16          1           0        1.594518   -0.953217    1.679140
     17          1           0        2.438993    0.991317   -1.742618
 ---------------------------------------------------------------------
 Rotational constants (GHZ):      5.2122177      0.4471280      0.4441720
 Standard basis: def2TZVP (5D, 7F)
 There are   372 symmetry adapted cartesian basis functions of A   symmetry.
 There are   327 symmetry adapted basis functions of A   symmetry.
   327 basis functions,   523 primitive gaussians,   372 cartesian basis functions
    34 alpha electrons       34 beta electrons
       nuclear repulsion energy       420.9228849890 Hartrees.
 NAtoms=   17 NActive=   17 NUniq=   17 SFac= 1.00D+00 NAtFMM=   60 NAOKFM=F Big=F
 Integral buffers will be    131072 words long.
 Raffenetti 2 integral format.
 Two-electron integral symmetry is turned on.
 Nuclear repulsion after empirical dispersion term =      420.9173339716 Hartrees.
 ------------------------------------------------------------------------------
 Polarizable Continuum Model (PCM)
 =================================
 Model                : PCM (using non-symmetric T matrix).
 Atomic radii         : SMD-Coulomb.
 Polarization charges : Total charges.
 Charge compensation  : None.
 Solution method      : On-the-fly selection.
 Cavity type          : VdW (van der Waals Surface) (Alpha=1.000).
 Cavity algorithm     : GePol (No added spheres)
                        Default sphere list used, NSphG=   17.
                        Lebedev-Laikov grids with approx.  5.0 points / Ang**2.
                        Smoothing algorithm: Karplus/York (Gamma=1.0000).
                        Polarization charges: spherical gaussians, with
                                              point-specific exponents (IZeta= 3).
                        Self-potential: point-specific (ISelfS= 7).
                        Self-field    : sphere-specific E.n sum rule (ISelfD= 2).
 1st derivatives      : Analytical E(r).r(x)/FMM algorithm (CHGder, D1EAlg=3).
                        Cavity 1st derivative terms included.
 Solvent              : DiethylEther, Eps=   4.240000 Eps(inf)=   1.829527
 ------------------------------------------------------------------------------
 Spheres list:
 ISph  on   Nord     Re0    Alpha      Xe            Ye            Ze
    1   C      1    1.8500  1.000     -2.876335      0.010174     -0.022296
    2   N      2    1.8900  1.000     -1.574337     -0.093363     -0.246281
    3   H      3    1.2000  1.000     -0.936997      0.641099      0.013591
    4   H      4    1.2000  1.000     -1.178144     -0.912115     -0.675606
    5   N      5    1.8900  1.000     -3.692556     -0.972439     -0.379985
    6   N      6    1.8900  1.000     -3.366156      1.097180      0.559623
    7   H      7    1.2000  1.000     -3.337549     -1.807449     -0.813705
    8   H      8    1.2000  1.000     -4.678216     -0.920137     -0.189230
    9   H      9    1.2000  1.000     -2.760871      1.852911      0.830041
   10   H     10    1.2000  1.000     -4.353569      1.199708      0.718556
   11   N     11    1.8900  1.000      2.529969      0.494246     -0.866853
   12   N     12    1.8900  1.000      3.693380      0.204132     -0.356503
   13   N     13    1.8900  1.000      3.448808     -0.429439      0.753742
   14   C     14    1.8500  1.000      2.111748     -0.487297      0.857977
   15   N     15    1.8900  1.000      1.503657      0.095487     -0.154351
   16   H     16    1.2000  1.000      1.594518     -0.953217      1.679140
   17   H     17    1.2000  1.000      2.438993      0.991317     -1.742618
 ------------------------------------------------------------------------------
 ------------------------------------------------------------------------------
 Atomic radii for non-electrostatic terms: SMD-CDS.
 ------------------------------------------------------------------------------
 Nuclear repulsion after PCM non-electrostatic terms =      420.9135058787 Hartrees.
 One-electron integrals computed using PRISM.
   1 Symmetry operations used in ECPInt.
 ECPInt:  NShTT=    8646 NPrTT=   26328 LenC2=    7698 LenP2D=   17677.
 LDataN:  DoStor=T MaxTD1= 6 Len=  172
 NBasis=   327 RedAO= T EigKep=  2.81D-04  NBF=   327
 NBsUse=   327 1.00D-06 EigRej= -1.00D+00 NBFU=   327
 Initial guess from the checkpoint file:  "/lscratch/anb28780/285284.sapelo2/Gau-90187.chk"
 B after Tr=     0.000000    0.000000    0.000000
         Rot=    0.998158    0.060657   -0.000119    0.000838 Ang=   6.96 deg.
 ExpMin= 9.52D-02 ExpMax= 1.97D+04 ExpMxC= 6.73D+02 IAcc=2 IRadAn=         4 AccDes= 0.00D+00
 Harris functional with IExCor= 4639 and IRadAn=       4 diagonalized for initial guess.
 HarFok:  IExCor= 4639 AccDes= 0.00D+00 IRadAn=         4 IDoV= 1 UseB2=F ITyADJ=14
 ICtDFT=  3500011 ScaDFX=  1.000000  1.000000  1.000000  1.000000
 FoFCou: FMM=F IPFlag=           0 FMFlag=      100000 FMFlg1=           0
         NFxFlg=           0 DoJE=T BraDBF=F KetDBF=T FulRan=T
         wScrn=  0.000000 ICntrl=     500 IOpCl=  0 I1Cent=   200000004 NGrid=           0
         NMat0=    1 NMatS0=      1 NMatT0=    0 NMatD0=    1 NMtDS0=    0 NMtDT0=    0
 Petite list used in FoFCou.
 Keep R1 ints in memory in canonical form, NReq=2902410226.
 Requested convergence on RMS density matrix=1.00D-08 within 128 cycles.
 Requested convergence on MAX density matrix=1.00D-06.
 Requested convergence on             energy=1.00D-06.
 No special actions if energy rises.
 Inv3:  Mode=1 IEnd=     7179627.
 Iteration    1 A*A^-1 deviation from unit magnitude is 9.99D-15 for   1536.
 Iteration    1 A*A^-1 deviation from orthogonality  is 4.74D-15 for   1523    177.
 Iteration    1 A^-1*A deviation from unit magnitude is 1.04D-14 for   1536.
 Iteration    1 A^-1*A deviation from orthogonality  is 1.04D-12 for    994    972.
 Error on total polarization charges =  0.01588
 SCF Done:  E(RwB97XD) =  -464.163256177     A.U. after   10 cycles
            NFock= 10  Conv=0.88D-08     -V/T= 2.0044
 SMD-CDS (non-electrostatic) energy       (kcal/mol) =      -2.40
 (included in total energy above)
   1 Symmetry operations used in ECPInt.
 ECPInt:  NShTT=    8646 NPrTT=   26328 LenC2=    7698 LenP2D=   17677.
 LDataN:  DoStor=T MaxTD1= 7 Len=  274
 D1PCM: PCM CHGder 1st derivatives, ID1Alg=3 FixD1E=F DoIter=F DoCFld=F I1PDM=0.
 Calling FoFJK, ICntrl=      2127 FMM=F ISym2X=0 I1Cent= 0 IOpClX= 0 NMat=1 NMatS=1 NMatT=0.
 ***** Axes restored to original set *****
 -------------------------------------------------------------------
 Center     Atomic                   Forces (Hartrees/Bohr)
 Number     Number              X              Y              Z
 -------------------------------------------------------------------
      1        6           0.000452296   -0.000559928    0.001073686
      2        7           0.000335450    0.001226013   -0.000403018
      3        1          -0.000877696   -0.000848046    0.000318919
      4        1           0.000368533    0.000015764   -0.000001422
[...]
   D29       -3.13983   0.00001   0.00000   0.00033   0.00033  -3.13950
         Item               Value     Threshold  Converged?
 Maximum Force            0.000043     0.000450     YES
 RMS     Force            0.000012     0.000300     YES
 Maximum Displacement     0.003866     0.001800     NO 
 RMS     Displacement     0.000873     0.001200     YES
 Predicted change in Energy=-9.653281D-08
 GradGradGradGradGradGradGradGradGradGradGradGradGradGradGradGradGradGrad

 1\1\GINC-N231\Freq\RwB97XD\def2TZVP\C2H8N7(1+)\ANB28780\10-Aug-2018\0\
 \#N Geom=AllCheck Guess=TCheck SCRF=Check GenChk RwB97XD/def2TZVP Freq
 \\running tetrazole_taut.ho.2.1 again after failed run\\1,1\C,2.629723
 2277,-0.262142197,0.1187591218\N,1.6019020871,-0.9735134158,0.55469850
 71\H,0.6457461219,-0.6739662635,0.3762572703\H,1.7532472847,-1.8370471
 627,1.0470782469\N,3.8727038335,-0.6406808788,0.3927854156\N,2.4187843
 605,0.8425087997,-0.5885579022\H,4.0533426188,-1.4602305662,0.94671461
 56\H,4.6604383456,-0.1315689736,0.0310875351\H,1.4852584807,1.11794560
 96,-0.8436492197\H,3.1847116726,1.4107623998,-0.9054021551\N,-2.028905
 1539,0.6555756252,0.8230967644\N,-3.1793081844,0.9615912428,0.29730452
 8\N,-3.1355404713,0.5421426139,-0.9341740383\C,-1.9252144116,-0.014706
 5622,-1.0930294623\N,-1.202647248,0.0454660369,0.0061835278\H,-1.58276
 58658,-0.4592917218,-2.0118039922\H,-1.802203698,0.8713514136,1.785179
 2373\\Version=ES64L-G09RevD.01\State=1-A\HF=-464.1673988\RMSD=2.014e-0
 9\RMSF=3.122e-05\ZeroPoint=0.1394033\Thermal=0.1495113\Dipole=5.221789
 2,-0.7431545,0.9077845\DipoleDeriv=2.420994,-0.0054598,0.0445278,0.081
 4051,1.7043074,-0.7960833,-0.0090453,-0.7983193,0.9645165,-1.4609103,-
 0.3510888,0.2053522,-0.374589,-0.802449,0.1461762,0.2455173,0.1504062,
 -0.668452,0.9374996,-0.1401118,0.07759,-0.2331767,0.2556318,0.0439767,
 0.1238209,0.0489342,0.2906342,0.185584,0.0181455,-0.007277,0.0430539,0
 .3663426,0.0069024,-0.0338123,-0.0020317,0.3782526,-1.5039657,0.293324
 8,-0.2150703,0.2825923,-0.6104807,-0.0057849,-0.2230079,0.0048624,-0.6
 056793,-0.5370926,0.1622842,-0.081648,0.1209734,-1.2367569,0.4146781,-
 0.0592507,0.3998567,-0.8498406,0.2496203,-0.0538011,0.0372105,-0.09670
 51,0.3577887,0.0181969,0.0645685,0.022206,0.3724142,0.3701451,0.028605
 9,-0.0202087,0.0765347,0.2694421,0.0819222,-0.039157,0.0805252,0.33049
 88,0.3442179,-0.0940173,0.0548253,-0.0509585,0.2973139,0.0406614,0.018
 4106,0.0442617,0.3410909,0.2435537,0.0807253,-0.0597779,0.0541844,0.35
 67571,0.0236874,-0.0447211,0.0235911,0.3681727,0.2115836,-0.160319,-0.
 2324295,-0.2247973,0.0439966,-0.0663709,-0.3869525,-0.0235724,-0.51106
 87,-0.1479343,0.0971432,0.3267677,0.1233766,-0.1764348,-0.0184067,0.34
 12909,-0.0225439,0.2356975,-0.2155304,0.015458,0.1167477,-0.0624078,-0
 .2589558,-0.1294949,-0.1516516,-0.0195935,-0.4959204,0.276024,-0.10894
 51,-0.1038241,-0.0700777,0.1604776,0.1250279,0.032026,0.0873741,0.3252
 418,-0.7845909,0.140759,-0.1930502,0.254304,-0.2434501,0.1171359,0.078
 2287,0.0074868,-0.0746474,0.1292038,0.0302285,0.0211747,0.0280045,0.16
 38545,-0.0259221,0.013327,-0.0231187,0.1238033,0.2815982,0.0470684,0.0
 290897,0.0482832,0.3526151,0.0236977,0.0304084,0.0196751,0.475286\Pola
 r=98.3854702,-8.4378308,69.7845789,3.2857756,-2.2801651,79.1690807\PG=
 C01 [X(C2H8N7)]\NImag=0\\0.88333719,0.00526394,0.68103055,0.00567961,-
 0.30571294,0.40304919,-0.31458946,-0.10250878,0.06778944,0.85443866,-0
 .11038450,-0.20821893,0.08891282,-0.01340172,0.67438719,0.06971331,0.0
 8835962,-0.11497735,0.00377617,-0.36976579,0.25682274,-0.02797033,-0.0
 0280721,0.00157647,-0.37341635,0.09904678,-0.05979010,0.38272266,-0.01
 951116,0.01399381,-0.01102222,0.09930089,-0.09354250,0.05023295,-0.094
 74810,0.09014191,0.01126020,-0.01069481,0.00166415,-0.06005667,0.05017
 079,-0.03718013,0.05775896,-0.04353158,0.04406153,0.01040887,-0.028224
 73,0.01636160,-0.08472693,0.06154559,-0.03466295,0.00762751,0.02406207
 ,-0.01387272,0.07612401,0.00007921,-0.01562206,0.00615659,0.05417398,-
 0.34614784,0.19677765,-0.00117148,-0.00204747,-0.00059602,-0.05392911,
 0.35854477,0.00095115,0.00809977,-0.00977059,-0.03145441,0.19474841,-0
 .11401657,0.00075552,-0.00014619,-0.00270601,0.03030972,-0.20143359,0.
 12205926,-0.37773802,0.06984851,-0.04924581,-0.08195192,-0.00237036,0.
 00182526,0.00606567,-0.00515387,0.00312793,-0.00063441,0.00306023,-0.0
 0217998,0.86269867,0.07143427,-0.14395339,0.06382684,-0.02643526,0.019
 61598,-0.00507379,-0.00138705,-0.00217245,0.00375476,-0.00088751,0.000
 69667,-0.00206668,0.01018529,0.62161761,-0.04715012,0.06164493,-0.0992
 0920,0.01604043,-0.00523648,0.01740792,0.00121059,0.00396569,0.0019686
 5,0.00021702,-0.00175769,-0.00137530,-0.01115736,-0.40417063,0.3070102
 3,-0.16303988,0.03079004,-0.02644141,0.01328428,-0.04268206,0.02546930
 ,0.00217819,-0.00110107,0.00098859,-0.00530822,-0.00168226,0.00127535,
 -0.01498818,0.05505180,-0.03733059,0.90739117,0.03111610,-0.30281382,0
 .15476622,-0.02241607,-0.04638145,0.03767006,0.00564098,-0.00267818,-0
 .00005057,-0.00257104,0.00354026,0.00010584,0.03347790,-0.02229122,0.0
 2361046,0.03969254,0.61850928,-0.02766043,0.15666126,-0.15897183,0.012
 37621,0.03741440,-0.00928094,-0.00336758,0.00000074,-0.00237910,0.0014
 9849,0.00017064,0.00431353,-0.02311192,0.02401350,-0.00442790,0.038616
 65,-0.37479933,0.27520777,-0.00173456,0.03152341,-0.02081701,0.0024185
 9,-0.00036349,0.00023959,-0.00029469,0.00001218,0.00007322,-0.00205728
 ,-0.00075039,0.00028926,-0.08355639,0.04952657,-0.03401217,-0.00566617
 ,-0.00033453,-0.00015915,0.07873134,0.00605307,-0.00571984,0.00054836,
 -0.00353176,-0.00098826,-0.00150830,0.00044797,-0.00064564,-0.00042140
 ,0.00019225,0.00101339,0.00028936,0.05243193,-0.31523023,0.21112688,-0
 .00109627,0.00429020,0.00003916,-0.05951240,0.32396893,-0.00365470,0.0
 0136064,-0.00559997,0.00232441,-0.00105091,-0.00185787,-0.00029019,-0.
 00033184,-0.00103167,-0.00037343,0.00017728,0.00117882,-0.03599249,0.2
 0939781,-0.14426727,0.00074237,0.00000006,0.00397818,0.04087947,-0.213
 66624,0.15121811,-0.02617477,-0.01697670,0.01132191,-0.00078667,0.0038
 2099,-0.00233068,-0.00019284,-0.00073775,0.00029233,0.00002313,0.00000
 443,0.00007151,-0.30959715,-0.15682451,0.11150067,0.00223044,-0.002144
 88,0.00172856,0.01182134,0.00535403,-0.00378684,0.32244988,0.00759530,
 0.01031665,-0.01033766,0.00484841,0.00092932,0.00233947,-0.00010519,0.
 00157266,0.00106422,0.00026830,-0.00047323,-0.00052816,-0.15927481,-0.
 15785028,0.10949616,0.00092029,-0.00169537,-0.00087709,-0.02106750,-0.
 00731803,0.00346238,0.16593228,0.15543868,-0.00721887,-0.01050300,0.00
 154686,-0.00320098,0.00263250,0.00247739,-0.00004997,0.00075562,0.0024
 6871,-0.00006384,-0.00039148,-0.00102503,0.11543098,0.10997836,-0.0784
 1424,-0.00046302,-0.00079970,-0.00209657,0.01402042,0.00290109,-0.0049
 9723,-0.11791381,-0.10529329,0.08056663,0.00229385,0.00558330,-0.00305
 870,-0.00132806,-0.00304466,0.00191844,0.00116523,-0.00106209,0.000501
 28,-0.00024988,0.00026243,-0.00005499,0.00358448,-0.00278107,0.0015701
 8,-0.41592901,0.09508955,-0.09447190,0.00038748,0.00001687,-0.00015199
 ,-0.00007661,-0.00025392,0.00018515,0.42318212,0.03223134,-0.00909005,
 0.00500590,0.00064077,0.00060602,-0.00218467,-0.00120017,-0.00098093,0
 .00150880,-0.00010241,-0.00036128,-0.00067232,-0.00187457,-0.00258536,
 0.00423354,0.08973581,-0.07950182,0.05659529,0.00102388,0.00090924,0.0
 0123610,-0.00006163,-0.00044696,-0.00047350,-0.10257088,0.08260648,-0.
 01859358,0.00097149,-0.00721797,-0.00058458,-0.00151742,-0.00166754,0.
 00078059,0.00182979,0.00008709,0.00008054,-0.00055548,-0.00082467,0.00
 098446,0.00389779,0.00151901,-0.09389345,0.05865592,-0.04714070,-0.000
 52595,0.00131813,0.00222018,-0.00008609,-0.00052666,-0.00091889,0.0997
 0834,-0.05669344,0.05371832,0.01358664,0.00283304,-0.00034346,0.001211
 03,0.00424181,-0.00293429,-0.00045259,0.00039579,-0.00019300,0.0007028
 4,0.00005654,-0.00015312,-0.00208111,0.00291522,-0.00130373,-0.3146691
 4,-0.17493634,0.09260364,-0.00023676,-0.00023460,0.00017882,0.00040808
 ,0.00102251,-0.00061813,-0.01207948,-0.01730532,0.01089414,0.31343065,
 -0.02336964,-0.01761880,0.00643368,0.00336576,-0.00068205,0.00291145,-
 0.00004804,-0.00041918,-0.00057907,-0.00072112,0.00079538,0.00161262,-
 0.00122849,0.00177730,-0.00261581,-0.16966902,-0.17265698,0.10102547,0
 .00002313,-0.00035564,-0.00053141,0.00157615,-0.00037202,0.00116229,0.
 00901674,0.00906855,-0.00726140,0.18111920,0.18041096,0.01593647,0.008
 73592,-0.00997589,-0.00250559,0.00325966,0.00204861,-0.00000599,-0.000
 54763,-0.00088027,0.00060032,0.00144862,0.00205229,0.00102628,-0.00337
 936,-0.00016921,0.09060205,0.10115368,-0.06041065,-0.00002642,-0.00058
 018,-0.00090682,-0.00079673,0.00119308,0.00050929,-0.00669956,-0.00905
 661,0.00268889,-0.09815632,-0.10219544,0.06507566,-0.00066741,-0.00032
 115,0.00021786,0.00045140,0.00019074,-0.00079757,-0.00165933,0.0009199
 1,0.00192119,-0.00003858,0.00002957,-0.00005854,0.00042423,0.00000193,
 0.00004778,0.00007153,0.00006989,-0.00021131,-0.00002306,0.00003260,-0
 .00002768,-0.00002560,-0.00001999,0.00004291,-0.00019793,0.00000796,0.
 00035435,-0.00000603,-0.00005798,0.00002694,0.58118785,0.00079546,0.00
 032025,-0.00020812,-0.00091672,0.00033680,0.00016479,0.00193282,-0.001
 47181,-0.00019228,-0.00018662,-0.00007768,0.00002054,-0.00050625,0.000
 02532,-0.00002161,-0.00002865,-0.00007100,0.00020442,0.00002893,-0.000
 04947,0.00002714,0.00002476,0.00001906,-0.00004104,0.00034190,0.000099
 83,-0.00038960,-0.00000179,0.00006280,-0.00006610,-0.14341018,0.257216
 99,0.00150238,0.00129588,-0.00090208,-0.00321791,0.00023659,-0.0002276
 8,0.00501858,-0.00146088,0.00159893,-0.00039086,-0.00011721,0.00001334
 ,-0.00101204,-0.00008620,0.00008758,0.00000907,-0.00041966,0.00045564,
 0.00007439,-0.00009325,0.00003834,0.00001850,0.00006601,-0.00006020,0.
 00032155,0.00015693,-0.00044565,0.00003223,0.00007045,-0.00009276,0.14
 377587,0.21645938,0.98231819,0.00122005,0.00117530,-0.00061457,-0.0023
 5881,-0.00000471,-0.00031056,0.00456534,-0.00123623,0.00132510,-0.0003
 7736,-0.00006223,0.00014577,-0.00084256,-0.00012897,-0.00000463,0.0000
 8638,-0.00050480,0.00013595,0.00005508,-0.00005326,0.00008089,0.000008
 26,0.00007800,-0.00001419,0.00023244,0.00031323,-0.00019102,0.00001239
 ,0.00009969,-0.00001270,-0.27106915,0.06931660,-0.02930614,0.50096023,
 -0.00057548,-0.00024311,0.00006232,0.00066606,-0.00024088,0.00027047,-
 0.00129039,0.00092594,-0.00081744,0.00019859,0.00004928,-0.00004433,0.
 00036926,-0.00001011,0.00004474,-0.00003898,0.00014006,0.00002158,-0.0
 0002002,0.00002647,-0.00003545,-0.00001783,-0.00003001,0.00000468,-0.0
 0024012,-0.00018326,0.00009434,0.00000706,-0.00007406,0.00002297,0.053
 38909,-0.10581463,-0.00162494,-0.16029923,0.23779284,-0.00010551,0.000
 09271,-0.00006930,-0.00020045,0.00018833,0.00011710,0.00062871,-0.0005
 5282,-0.00039984,-0.00007062,0.00000862,0.00000279,0.00003948,-0.00004
 404,0.00001252,0.00007115,-0.00001965,0.00005248,-0.00000519,0.0000086
 0,-0.00000100,-0.00001911,-0.00000740,-0.00000244,0.00002914,-0.000005
 20,-0.00013843,-0.00001684,-0.00000552,0.00001554,-0.07581044,0.018129
 46,-0.12526882,-0.01950002,0.13117929,0.50866885,0.00075820,0.00079195
 ,-0.00048920,-0.00167205,0.00016780,0.00021521,0.00285528,-0.00111135,
 -0.00018219,-0.00020368,-0.00007176,0.00001304,-0.00051391,-0.00008663
 ,0.00003349,0.00001460,-0.00025793,0.00021311,0.00003932,-0.00004392,0
 .00003108,0.00000431,0.00003141,-0.00003402,0.00003712,0.00008275,-0.0
 0020146,0.00002457,0.00003269,-0.00001335,-0.03637317,0.01822769,-0.02
 597434,-0.11094993,0.01608295,0.03994182,0.49235873,-0.00033681,-0.000
 30656,0.00019042,0.00060072,-0.00017403,0.00011061,-0.00095560,0.00078
 195,-0.00025785,0.00014000,-0.00000007,-0.00005699,0.00018891,0.000045
 36,0.00000322,-0.00004594,0.00013153,-0.00010281,-0.00001352,0.0000078
 3,-0.00001978,-0.00000044,-0.00001776,0.00000373,-0.00006468,-0.000082
 70,0.00019262,0.00000447,-0.00003291,0.00000448,-0.00943894,0.01687119
 ,-0.04277048,0.00231178,-0.12949324,-0.08260492,-0.12401194,0.20786987
 ,0.00015567,0.00007877,-0.00019511,-0.00006990,0.00011357,0.00036297,-
 0.00027380,-0.00027232,-0.00050995,0.00002812,-0.00004669,-0.00008285,
 -0.00004671,0.00002121,0.00005582,-0.00002405,0.00004003,0.00021262,0.
 00000944,-0.00002128,-0.00003021,0.00000972,-0.00001251,-0.00003476,-0
 .00006053,-0.00009980,-0.00012991,0.00001560,-0.00001987,-0.00004533,-
 0.11013501,-0.00783545,-0.13723439,-0.00214626,-0.06466463,-0.30625636
 ,0.08668010,0.09709903,0.53509542,-0.00033816,0.00013883,-0.00015966,-
 0.00044075,0.00039596,0.00043473,-0.00033074,-0.00049775,-0.00165176,0
 .00002007,0.00002693,-0.00006360,0.00023930,-0.00007200,0.00007821,-0.
 00000324,0.00004367,0.00016969,-0.00000614,0.00001519,-0.00003383,-0.0
 0002785,-0.00003924,-0.00002382,-0.00086385,-0.00024502,-0.00020706,0.
 00001789,-0.00007717,0.00001904,0.00537349,-0.01139035,-0.04371943,-0.
 01658577,0.05363131,0.11208563,-0.26978854,0.07486516,-0.00028286,0.57
 127200,-0.00017631,-0.00033748,0.00026057,0.00099090,-0.00026545,-0.00
 031551,-0.00132313,0.00075747,0.00068884,0.00008073,0.00003844,0.00004
 783,0.00015715,0.00003943,-0.00005286,-0.00004488,0.00002305,-0.000187
 77,-0.00001291,0.00002046,0.00000766,0.00001018,0.00000649,0.00003501,
 -0.00014838,0.00002809,0.00008216,-0.00001030,0.00002063,0.00002803,0.
 01504768,-0.00042883,-0.02296046,0.02237441,-0.00629930,-0.06680341,0.
 07909939,-0.12620592,-0.01118997,-0.17359820,0.31875430,-0.00109214,-0
 .00100110,0.00078428,0.00245555,-0.00040170,-0.00035670,-0.00426058,0.
 00177902,-0.00022431,0.00029740,0.00009860,0.00001952,0.00075248,0.000
 07287,-0.00008368,0.00002711,0.00025061,-0.00048277,-0.00005138,0.0000
 7273,-0.00001423,-0.00000498,-0.00003293,0.00006858,-0.00023928,0.0000
 7189,0.00057366,-0.00000955,-0.00003663,0.00008050,0.03590275,-0.05579
 633,-0.11215880,0.01657129,-0.02777123,-0.03825641,0.01195164,-0.01560
 287,-0.12216933,-0.02536533,0.23638123,0.85878641,0.00110182,0.0028096
 6,-0.00178073,-0.01055385,0.00282433,-0.00256230,-0.00333844,0.0005569
 4,-0.00160360,-0.00128382,-0.00011713,0.00012328,-0.00134547,-0.000424
 04,0.00023839,-0.00579772,-0.00191074,0.00167701,0.00013859,-0.0001169
 1,0.00007813,-0.00002615,0.00007362,-0.00010002,-0.00017753,-0.0006635
 7,0.00144429,0.00015797,-0.00003633,-0.00003376,-0.18949531,0.06295935
 ,0.04963174,-0.10199210,0.04718230,-0.02995931,-0.06804072,0.04435011,
 0.00645150,-0.19588049,0.00366536,-0.12497668,0.55643680,-0.00053222,-
 0.00238331,0.00145698,0.00495602,0.00103505,-0.00012894,-0.00205429,-0
 .00416184,0.00001591,0.00006757,0.00003239,0.00005627,0.00075204,0.000
 39553,-0.00031033,0.00013209,0.00184812,-0.00033735,-0.00008531,0.0000
 4859,-0.00003408,0.00004222,-0.00010440,0.00002631,-0.00006329,-0.0002
 0453,-0.00004862,-0.00010759,0.00005322,-0.00003699,0.07929086,-0.1297
 2509,-0.05691596,0.06806545,0.00287627,-0.01029677,0.00642993,0.028692
 93,-0.00700791,0.00371846,-0.09468492,-0.01893760,-0.14906063,0.207857
 35,0.00020802,0.00068687,-0.00024445,-0.00318714,0.00018634,0.00048858
 ,-0.00052364,-0.00039341,-0.00665400,0.00012395,0.00005913,0.00009701,
 -0.00032610,-0.00015099,-0.00005547,0.00036712,-0.00025134,0.00105867,
 0.00001363,-0.00000831,0.00003923,-0.00000409,-0.00001633,-0.00010283,
 0.00043185,0.00040833,-0.00229092,0.00000012,0.00001601,-0.00001117,0.
 09719161,-0.07650100,-0.19047909,0.03688061,-0.03762182,-0.03401699,-0
 .10863328,0.04040265,0.01953147,-0.12626394,-0.01837067,-0.30335122,0.
 09468838,0.09862481,0.54033586,-0.00014660,0.00005789,-0.00012504,-0.0
 0001120,0.00006405,0.00014968,0.00016140,-0.00014990,-0.00009215,-0.00
 000032,0.00001130,-0.00002936,0.00009346,-0.00002793,0.00004646,0.0000
 5695,0.00003327,0.00013025,-0.00000326,0.00000751,-0.00001941,-0.00001
 458,-0.00001270,-0.00000807,0.00000182,-0.00008049,-0.00011014,-0.0000
 0587,-0.00002735,-0.00000290,-0.00213168,0.00163286,-0.00711482,-0.004
 04782,0.00551738,0.00162645,-0.00284824,0.00794367,0.02501925,-0.08858
 630,0.04827007,0.08294069,0.00968142,-0.01135731,-0.01718976,0.0864146
 2,0.00007500,0.00023405,-0.00014437,-0.00008732,-0.00011370,-0.0000317
 6,-0.00010963,-0.00002698,0.00004426,0.00000552,0.00002421,0.00002546,
 0.00001393,-0.00005380,0.00002179,0.00003844,-0.00011610,0.00011258,0.
 00000624,0.00001063,0.00000181,-0.00000317,0.00000705,0.00000105,-0.00
 006152,0.00001927,-0.00009697,-0.00000058,-0.00000217,-0.00000368,0.00
 276307,0.00617648,0.00015582,0.00415881,0.00539899,-0.00241693,-0.0005
 3871,-0.00571502,-0.00766191,0.04774802,-0.09355477,-0.11579172,-0.002
 44632,-0.00164535,0.00404422,-0.05183911,0.08802905,-0.00013032,-0.000
 02786,0.00000132,0.00000861,0.00007414,0.00004108,0.00009300,-0.000057
 72,-0.00010596,-0.00001894,-0.00000575,-0.00002129,0.00005903,-0.00001
 182,0.00001008,0.00001877,0.00003313,-0.00001313,-0.00000355,0.0000019
 2,-0.00000516,-0.00000784,-0.00000567,0.00000277,-0.00003550,-0.000030
 17,-0.00001000,-0.00000105,-0.00001055,0.00001352,-0.00371975,-0.00127
 143,-0.00123011,-0.00228536,-0.00080847,0.00266571,-0.00071231,0.00295
 439,0.00454331,0.08101596,-0.11473305,-0.28464202,0.00998177,-0.007435
 19,-0.01408405,-0.08484409,0.12207698,0.29279459,-0.00030744,0.0000226
 9,0.00012871,0.00003210,-0.00004654,-0.00035325,0.00031403,0.00006149,
 0.00040326,-0.00002594,0.00007973,0.00005939,0.00014331,-0.00006011,-0
 .00002462,0.00008802,-0.00008758,-0.00016726,-0.00001342,0.00003769,0.
 00001539,-0.00002321,0.00000324,0.00002929,0.00001782,0.00006832,0.000
 14661,-0.00002108,0.00000179,0.00004223,-0.08582125,0.00118020,-0.0896
 4879,0.00108334,-0.01456196,-0.02873491,-0.00570191,0.00446307,-0.0053
 3027,-0.00407094,0.00561823,0.00510100,0.01041498,-0.00019399,0.026222
 65,0.00138619,0.00027734,0.00058157,0.08250541,0.00024242,0.00041205,-
 0.00019538,-0.00024589,-0.00015528,0.00017170,0.00013172,-0.00002675,-
 0.00010655,0.00006191,-0.00000514,-0.00005784,-0.00007679,-0.00006636,
 0.00001799,0.00002810,-0.00027654,0.00004531,0.00001574,0.00001138,-0.
 00000117,0.00000187,0.00001814,0.00000136,-0.00002016,0.00009943,0.000
 04735,0.00000088,0.00002497,0.00001955,0.00150496,-0.04349020,-0.09199
 200,-0.00560385,-0.00482125,0.01314966,0.00517567,0.00762756,0.0014797
 2,0.00533620,0.00208831,-0.00335484,-0.00964598,-0.00993000,-0.0111144
 9,-0.00004321,0.00132816,-0.00074289,0.00313639,0.04716151,0.00019888,
 -0.00004816,0.00008794,-0.00029321,0.00003472,-0.00020161,0.00073942,-
 0.00024719,0.00022219,-0.00006383,0.00000678,0.00008575,-0.00017350,0.
 00002037,-0.00006956,-0.00003499,0.00005426,-0.00007531,0.00000140,-0.
 00000728,0.00003858,0.00000697,0.00001637,0.00001196,0.00010651,-0.000
 00106,-0.00002247,0.00000492,0.00002373,0.00000780,-0.08872098,-0.0926
 8277,-0.41641246,-0.00075416,0.00168794,-0.00712539,-0.00283933,0.0004
 5456,0.00688659,0.00396804,-0.00291763,0.00142652,-0.00329811,0.001309
 46,-0.01026063,-0.00037704,-0.00033663,0.00003935,0.09152900,0.0926325
 3,0.42536076\\-0.00002112,0.00000023,0.00003629,0.00002198,-0.00001296
 ,0.00001929,-0.00002947,0.00001730,-0.00001462,0.00000014,-0.00002462,
 -0.00003068,0.00000630,0.00002397,0.00004863,0.00001874,0.00003722,0.0
 0001220,-0.00000195,0.00000136,0.00002616,0.00000749,0.00002432,0.0000
 4959,-0.00000936,0.00000965,0.00003344,0.00000793,0.00002845,0.0000613
 3,-0.00000726,-0.00002827,-0.00009285,-0.00005061,0.00000598,0.0000115
 6,0.00003227,-0.00001301,-0.00005632,0.00000711,-0.00004104,-0.0000289
 0,0.00001934,-0.00000728,-0.00003683,0.00003947,0.00003311,-0.00003394
 ,-0.00004100,-0.00005440,-0.00000434\\\@


 THE DIFFICULTY IN SCIENCE IS OFTEN NOT SO MUCH HOW
 TO MAKE A DISCOVERY BUT RATHER TO KNOW ONE HAS MADE IT.

                                                   -- J. D. BERNAL
 Job cpu time:       0 days  1 hours 23 minutes  5.0 seconds.
 File lengths (MBytes):  RWF=    212 Int=      0 D2E=      0 Chk=     13 Scr=      1
 Normal termination of Gaussian 09 at Fri Aug 10 16:20:41 2018.
