 Entering Gaussian System, Link 0=g09
 Initial command:
 /sw/group/lms/sw/g09_D01/g09/l1.exe "/work/job.575604/Gau-51071.inp" -scrdir="/work/job.575604/"
 Default is to use a total of  28 processors:
                               28 via shared-memory
                                1 via Linda
 Entering Link 1 = /sw/group/lms/sw/g09_D01/g09/l1.exe PID=     51072.
  
 Copyright (c) 1988,1990,1992,1993,1995,1998,2003,2009,2013,
            Gaussian, Inc.  All Rights Reserved.
  
 This is part of the Gaussian(R) 09 program.  It is based on
 the Gaussian(R) 03 system (copyright 2003, Gaussian, Inc.),
 the Gaussian(R) 98 system (copyright 1998, Gaussian, Inc.),
 the Gaussian(R) 94 system (copyright 1995, Gaussian, Inc.),
 the Gaussian 92(TM) system (copyright 1992, Gaussian, Inc.),
 the Gaussian 90(TM) system (copyright 1990, Gaussian, Inc.),
 the Gaussian 88(TM) system (copyright 1988, Gaussian, Inc.),
 the Gaussian 86(TM) system (copyright 1986, Carnegie Mellon
 University), and the Gaussian 82(TM) system (copyright 1983,
 Carnegie Mellon University). Gaussian is a federally registered
 trademark of Gaussian, Inc.
  
 This software contains proprietary and confidential information,
 including trade secrets, belonging to Gaussian, Inc.
  
 This software is provided under written license and may be
 used, copied, transmitted, or stored only in accord with that
 written license.
  
 The following legend is applicable only to US Government
 contracts under FAR:
  
                    RESTRICTED RIGHTS LEGEND
  
 Use, reproduction and disclosure by the US Government is
 subject to restrictions as set forth in subparagraphs (a)
 and (c) of the Commercial Computer Software - Restricted
 Rights clause in FAR 52.227-19.
  
 Gaussian, Inc.
 340 Quinnipiac St., Bldg. 40, Wallingford CT 06492
  
  
 ---------------------------------------------------------------
 Warning -- This program may not be used in any manner that
 competes with the business of Gaussian, Inc. or will provide
 assistance to any competitor of Gaussian, Inc.  The licensee
 of this program is prohibited from giving any competitor of
 Gaussian, Inc. access to this program.  By using this program,
 the user acknowledges that Gaussian, Inc. is engaged in the
 business of creating and licensing software in the field of
 computational chemistry and represents and warrants to the
 licensee that it is not a competitor of Gaussian, Inc. and that
 it will not use this program in any manner prohibited above.
 ---------------------------------------------------------------
  

 Cite this work as:
 Gaussian 09, Revision D.01,
 M. J. Frisch, G. W. Trucks, H. B. Schlegel, G. E. Scuseria, 
 M. A. Robb, J. R. Cheeseman, G. Scalmani, V. Barone, B. Mennucci, 
 G. A. Petersson, H. Nakatsuji, M. Caricato, X. Li, H. P. Hratchian, 
 A. F. Izmaylov, J. Bloino, G. Zheng, J. L. Sonnenberg, M. Hada, 
 M. Ehara, K. Toyota, R. Fukuda, J. Hasegawa, M. Ishida, T. Nakajima, 
 Y. Honda, O. Kitao, H. Nakai, T. Vreven, J. A. Montgomery, Jr., 
 J. E. Peralta, F. Ogliaro, M. Bearpark, J. J. Heyd, E. Brothers, 
 K. N. Kudin, V. N. Staroverov, T. Keith, R. Kobayashi, J. Normand, 
 K. Raghavachari, A. Rendell, J. C. Burant, S. S. Iyengar, J. Tomasi, 
 M. Cossi, N. Rega, J. M. Millam, M. Klene, J. E. Knox, J. B. Cross, 
 V. Bakken, C. Adamo, J. Jaramillo, R. Gomperts, R. E. Stratmann, 
 O. Yazyev, A. J. Austin, R. Cammi, C. Pomelli, J. W. Ochterski, 
 R. L. Martin, K. Morokuma, V. G. Zakrzewski, G. A. Voth, 
 P. Salvador, J. J. Dannenberg, S. Dapprich, A. D. Daniels, 
 O. Farkas, J. B. Foresman, J. V. Ortiz, J. Cioslowski, 
 and D. J. Fox, Gaussian, Inc., Wallingford CT, 2013.
 
 ******************************************
 Gaussian 09:  ES64L-G09RevD.01 24-Apr-2013
                 2-Feb-2018 
 ******************************************
 %chk=Sub-10-Cl-18-tBu.S.2_2a_s_up_b.Cf1.chk
 ---------------------------------------------------------
 #M06/genecp denfit freq=(hpmodes,noraman,temperature=298)
 ---------------------------------------------------------
 1/10=4,30=1,38=1,112=298000/1,3;
 2/12=2,17=6,18=5,40=1/2;
 3/5=7,11=2,16=1,17=8,25=1,30=1,71=2,74=-54,82=47,140=1/1,2,3;
 4//1;
 5/5=2,38=5,98=1/2;
 8/6=4,10=90,11=11/1;
 11/6=1,8=1,9=11,15=111,16=1/1,2,10;
 10/6=1/2;
 6/7=2,8=2,9=2,10=2,18=1,28=1/1;
 7/8=11,10=1,25=1/1,2,3,16;
 1/10=4,30=1/3;
 99//99;
 -----------------------------------------------------
 Sub-10-Cl-18-tBu/S/2_2a_s_up_b/Cf1 step 4 (attempt 1)
 -----------------------------------------------------
 Symbolic Z-matrix:
 Charge =  1 Multiplicity = 1
 C                    0     1.95147   1.93899  -0.61807 
 C                    0     2.82727   2.85217  -1.1834 
 C                    0     4.1962    2.62806  -1.04708 
 C                    0     4.62355   1.53137  -0.32104 
 H                    0     5.67649   1.33056  -0.14199 
 C                    0     3.65423   0.67201   0.20532 
 N                    0     2.34893   0.82118   0.03849 
 H                    0     4.91778   3.31904  -1.47744 
 H                    0     2.43645   3.72338  -1.70208 
 Cl                   0     4.21557  -0.63699   1.19544 
 C                    0     0.50615   2.19451  -0.61326 
 O                    0     0.07192   3.27555  -1.2551 
 N                    0    -0.34291   1.47536   0.02356 
 C                    0    -1.37609   3.22976  -1.15134 
 H                    0    -1.71676   4.23999  -0.91052 
 H                    0    -1.76455   2.94431  -2.13641 
 C                    0    -1.63964   2.1817   -0.05853 
 C                    0    -2.07506   2.76511   1.30615 
 H                    0    -2.41038   1.46851  -0.38608 
 Pd                   0     0.43734  -0.6417    0.10275 
 C                    0    -4.35232  -1.51157   0.19451 
 C                    0    -3.47847  -2.52231   0.91658 
 C                    0    -2.11425  -1.90083   1.20799 
 C                    0    -1.46865  -1.4743   -0.08105 
 C                    0    -2.18684  -0.98863  -1.12436 
 H                    0    -3.95487  -2.85078   1.84914 
 H                    0    -2.23993  -1.0178    1.85405 
 C                    0     2.30817  -2.52626  -1.2214 
 H                    0     3.25604  -2.18772  -0.78687 
 H                    0     2.05446  -1.85952  -2.05478 
 C                    0     1.2224   -2.6049   -0.17987 
 C                    0    -0.12002  -2.90335  -0.5807 
 H                    0    -4.65801  -0.70956   0.88923 
 C                    0     1.71141  -3.14682   1.14392 
 H                    0     2.30226  -4.056     0.91275 
 H                    0     2.40209  -2.42841   1.61012 
 C                    0    -3.66377  -0.82969  -0.96328 
 O                    0    -4.28451  -0.12186  -1.74052 
 H                    0    -5.28788  -1.94251  -0.18526 
 H                    0    -3.34189  -3.4234    0.29534 
 H                    0    -1.4658   -2.58326   1.76822 
 C                    0    -0.41868  -3.30892  -1.99403 
 H                    0     0.05264  -4.29021  -2.16024 
 H                    0    -1.49556  -3.4203   -2.15924 
 H                    0    -0.02078  -2.62947  -2.7535 
 O                    0     0.63537  -3.44799   1.99757 
 H                    0     0.97002  -3.81947   2.82496 
 H                    0     2.48895  -3.52594  -1.6508 
 H                    0    -0.65105  -3.50042   0.16401 
 C                    0    -1.64132  -0.47216  -2.41759 
 H                    0    -1.93797   0.57683  -2.55476 
 H                    0    -0.54673  -0.52486  -2.45841 
 H                    0    -2.06832  -1.00717  -3.27728 
 C                    0    -1.07096   3.79259   1.8259 
 H                    0    -1.40765   4.18335   2.79553 
 H                    0    -0.07723   3.34835   1.98141 
 H                    0    -0.96185   4.65738   1.15673 
 C                    0    -3.45086   3.40993   1.12674 
 H                    0    -4.18041   2.69014   0.72469 
 H                    0    -3.82977   3.76092   2.09613 
 H                    0    -3.43486   4.28179   0.45803 
 C                    0    -2.2048    1.63325   2.32093 
 H                    0    -2.53018   2.02885   3.29264 
 H                    0    -2.96306   0.9056    1.99457 
 H                    0    -1.25301   1.10521   2.471 
 

 GradGradGradGradGradGradGradGradGradGradGradGradGradGradGradGradGradGrad
 Berny optimization.
 Initialization pass.
 Trust Radius=3.00D-01 FncErr=1.00D-07 GrdErr=1.00D-07
 Number of steps in this run=      2 maximum allowed number of steps=      2.
 GradGradGradGradGradGradGradGradGradGradGradGradGradGradGradGradGradGrad

 Stoichiometry    C24H34ClN2O3Pd(1+)
 Framework group  C1[X(C24H34ClN2O3Pd)]
 Deg. of freedom   189
 Full point group                 C1      NOp   1
 Largest Abelian subgroup         C1      NOp   1
 Largest concise Abelian subgroup C1      NOp   1
                         Standard orientation:                         
 ---------------------------------------------------------------------
 Center     Atomic      Atomic             Coordinates (Angstroms)
 Number     Number       Type             X           Y           Z
 ---------------------------------------------------------------------
      1          6           0        1.951471    1.938989   -0.618069
      2          6           0        2.827269    2.852173   -1.183396
      3          6           0        4.196203    2.628056   -1.047080
      4          6           0        4.623547    1.531369   -0.321040
      5          1           0        5.676493    1.330566   -0.141992
      6          6           0        3.654229    0.672011    0.205316
      7          7           0        2.348929    0.821183    0.038490
      8          1           0        4.917783    3.319037   -1.477441
      9          1           0        2.436446    3.723376   -1.702075
     10         17           0        4.215568   -0.636993    1.195440
     11          6           0        0.506151    2.194508   -0.613264
     12          8           0        0.071916    3.275554   -1.255099
     13          7           0       -0.342911    1.475360    0.023561
     14          6           0       -1.376095    3.229758   -1.151342
     15          1           0       -1.716759    4.239988   -0.910520
     16          1           0       -1.764547    2.944305   -2.136412
     17          6           0       -1.639636    2.181701   -0.058533
     18          6           0       -2.075062    2.765109    1.306150
     19          1           0       -2.410375    1.468513   -0.386081
     20         46           0        0.437338   -0.641701    0.102747
     21          6           0       -4.352320   -1.511569    0.194505
     22          6           0       -3.478470   -2.522310    0.916582
     23          6           0       -2.114247   -1.900825    1.207989
     24          6           0       -1.468651   -1.474302   -0.081052
     25          6           0       -2.186838   -0.988628   -1.124362
     26          1           0       -3.954865   -2.850777    1.849138
     27          1           0       -2.239926   -1.017798    1.854045
     28          6           0        2.308166   -2.526254   -1.221396
     29          1           0        3.256039   -2.187724   -0.786871
     30          1           0        2.054464   -1.859522   -2.054778
     31          6           0        1.222399   -2.604903   -0.179866
     32          6           0       -0.120014   -2.903353   -0.580697
     33          1           0       -4.658008   -0.709558    0.889226
     34          6           0        1.711409   -3.146816    1.143924
     35          1           0        2.302257   -4.055998    0.912754
     36          1           0        2.402086   -2.428410    1.610120
     37          6           0       -3.663765   -0.829694   -0.963276
     38          8           0       -4.284513   -0.121859   -1.740518
     39          1           0       -5.287881   -1.942507   -0.185257
     40          1           0       -3.341891   -3.423402    0.295342
     41          1           0       -1.465794   -2.583259    1.768215
     42          6           0       -0.418675   -3.308916   -1.994029
     43          1           0        0.052639   -4.290214   -2.160235
     44          1           0       -1.495563   -3.420297   -2.159235
     45          1           0       -0.020777   -2.629467   -2.753502
     46          8           0        0.635368   -3.447990    1.997566
     47          1           0        0.970016   -3.819472    2.824959
     48          1           0        2.488951   -3.525936   -1.650799
     49          1           0       -0.651052   -3.500419    0.164013
     50          6           0       -1.641324   -0.472158   -2.417588
     51          1           0       -1.937970    0.576833   -2.554760
     52          1           0       -0.546728   -0.524863   -2.458412
     53          1           0       -2.068318   -1.007175   -3.277282
     54          6           0       -1.070956    3.792585    1.825904
     55          1           0       -1.407654    4.183355    2.795528
     56          1           0       -0.077233    3.348346    1.981409
     57          1           0       -0.961849    4.657383    1.156731
     58          6           0       -3.450862    3.409930    1.126737
     59          1           0       -4.180409    2.690143    0.724687
     60          1           0       -3.829771    3.760921    2.096130
     61          1           0       -3.434859    4.281794    0.458032
     62          6           0       -2.204795    1.633251    2.320933
     63          1           0       -2.530182    2.028848    3.292641
     64          1           0       -2.963057    0.905594    1.994573
     65          1           0       -1.253010    1.105214    2.471002
 ---------------------------------------------------------------------
 Rotational constants (GHZ):      0.1625295      0.1289514      0.0902747
 General basis read from cards:  (5D, 7F)
 ======================================================================================================
                                       Pseudopotential Parameters
 ======================================================================================================
  Center     Atomic      Valence      Angular      Power
  Number     Number     Electrons     Momentum     of R      Exponent        Coefficient   SO-Coeffient
 ======================================================================================================
    1          6
                                   No pseudopotential on this center.
    2          6
                                   No pseudopotential on this center.
    3          6
                                   No pseudopotential on this center.
    4          6
                                   No pseudopotential on this center.
    5          1
                                   No pseudopotential on this center.
    6          6
                                   No pseudopotential on this center.
    7          7
                                   No pseudopotential on this center.
    8          1
                                   No pseudopotential on this center.
    9          1
                                   No pseudopotential on this center.
   10         17
                                   No pseudopotential on this center.
   11          6
                                   No pseudopotential on this center.
   12          8
                                   No pseudopotential on this center.
   13          7
                                   No pseudopotential on this center.
   14          6
                                   No pseudopotential on this center.
   15          1
                                   No pseudopotential on this center.
   16          1
                                   No pseudopotential on this center.
   17          6
                                   No pseudopotential on this center.
   18          6
                                   No pseudopotential on this center.
   19          1
                                   No pseudopotential on this center.
   20         46           18
                                      F and up 
                                                     0      598.3336444       -0.05631770    0.00000000
                                                     1      162.4298290      -20.12880360    0.00000000
                                                     2       51.5714771     -105.81979230    0.00000000
                                                     2       16.4888260      -42.57333450    0.00000000
                                                     2        5.8287656       -3.61650860    0.00000000
                                      S - F
                                                     0       73.3806304        3.00036510    0.00000000
                                                     1       14.7550438       32.43500930    0.00000000
                                                     2       17.8350204      459.08303830    0.00000000
                                                     2       12.7111477     -868.06290290    0.00000000
                                                     2        9.3292063      514.47260980    0.00000000
                                      P - F
                                                     0       55.6689877        4.95930990    0.00000000
                                                     1       64.2337771       21.17110290    0.00000000
                                                     2       17.6254952      605.05600920    0.00000000
                                                     2       11.9058155     -726.96418460    0.00000000
                                                     2        8.5100832      396.32748830    0.00000000
                                      D - F
                                                     0       49.9994728        3.05087450    0.00000000
                                                     1       39.7477547       22.25065800    0.00000000
                                                     2       11.4321366      674.83576980    0.00000000
                                                     2        9.1790080    -1040.85540480    0.00000000
                                                     2        7.5624429      505.93751470    0.00000000
   21          6
                                   No pseudopotential on this center.
   22          6
                                   No pseudopotential on this center.
   23          6
                                   No pseudopotential on this center.
   24          6
                                   No pseudopotential on this center.
   25          6
                                   No pseudopotential on this center.
   26          1
                                   No pseudopotential on this center.
   27          1
                                   No pseudopotential on this center.
   28          6
                                   No pseudopotential on this center.
   29          1
                                   No pseudopotential on this center.
   30          1
                                   No pseudopotential on this center.
   31          6
                                   No pseudopotential on this center.
   32          6
                                   No pseudopotential on this center.
   33          1
                                   No pseudopotential on this center.
   34          6
                                   No pseudopotential on this center.
   35          1
                                   No pseudopotential on this center.
   36          1
                                   No pseudopotential on this center.
   37          6
                                   No pseudopotential on this center.
   38          8
                                   No pseudopotential on this center.
   39          1
                                   No pseudopotential on this center.
   40          1
                                   No pseudopotential on this center.
   41          1
                                   No pseudopotential on this center.
   42          6
                                   No pseudopotential on this center.
   43          1
                                   No pseudopotential on this center.
   44          1
                                   No pseudopotential on this center.
   45          1
                                   No pseudopotential on this center.
   46          8
                                   No pseudopotential on this center.
   47          1
                                   No pseudopotential on this center.
   48          1
                                   No pseudopotential on this center.
   49          1
                                   No pseudopotential on this center.
   50          6
                                   No pseudopotential on this center.
   51          1
                                   No pseudopotential on this center.
   52          1
                                   No pseudopotential on this center.
   53          1
                                   No pseudopotential on this center.
   54          6
                                   No pseudopotential on this center.
   55          1
                                   No pseudopotential on this center.
   56          1
                                   No pseudopotential on this center.
   57          1
                                   No pseudopotential on this center.
   58          6
                                   No pseudopotential on this center.
   59          1
                                   No pseudopotential on this center.
   60          1
                                   No pseudopotential on this center.
   61          1
                                   No pseudopotential on this center.
   62          6
                                   No pseudopotential on this center.
   63          1
                                   No pseudopotential on this center.
   64          1
                                   No pseudopotential on this center.
   65          1
                                   No pseudopotential on this center.
 ======================================================================================================
 There are   666 symmetry adapted cartesian basis functions of A   symmetry.
 There are   634 symmetry adapted basis functions of A   symmetry.
   634 basis functions,  1169 primitive gaussians,   666 cartesian basis functions
   125 alpha electrons      125 beta electrons
       nuclear repulsion energy      3997.7172054978 Hartrees.
 NAtoms=   65 NActive=   65 NUniq=   65 SFac= 1.00D+00 NAtFMM=   60 NAOKFM=T Big=T
 Integral buffers will be    131072 words long.
 Raffenetti 2 integral format.
 Two-electron integral symmetry is turned on.
 Standard density basis: Auto (5D, 7F)
  2775 Density fitting functions
 There are  2775 symmetry adapted density basis functions of A   symmetry.
 One-electron integrals computed using PRISM.
   1 Symmetry operations used in ECPInt.
 ECPInt:  NShTT=   25878 NPrTT=  135610 LenC2=   23205 LenP2D=   72413.
 LDataN:  DoStor=T MaxTD1= 5 Len=  102
 NBasis=   634 RedAO= T EigKep=  1.63D-06  NBF=   634
 NBsUse=   632 1.00D-06 EigRej=  9.66D-07 NBFU=   632
 Defaulting to unpruned grid for atomic number  46.
 ExpMin= 2.62D-02 ExpMax= 2.52D+04 ExpMxC= 3.78D+03 IAcc=3 IRadAn=         5 AccDes= 0.00D+00
 Harris functional with IExCor= 1009 and IRadAn=       5 diagonalized for initial guess.
 HarFok:  IExCor= 1009 AccDes= 0.00D+00 IRadAn=         5 IDoV= 1 UseB2=F ITyADJ=14
 ICtDFT=  3500011 ScaDFX=  1.000000  1.000000  1.000000  1.000000
 Defaulting to unpruned grid for atomic number  46.
 Defaulting to unpruned grid for atomic number  46.
 Defaulting to unpruned grid for atomic number  46.
 Defaulting to unpruned grid for atomic number  46.
 Defaulting to unpruned grid for atomic number  46.
 Defaulting to unpruned grid for atomic number  46.
 Defaulting to unpruned grid for atomic number  46.
 Defaulting to unpruned grid for atomic number  46.
 Defaulting to unpruned grid for atomic number  46.
 Defaulting to unpruned grid for atomic number  46.
 Defaulting to unpruned grid for atomic number  46.
 Defaulting to unpruned grid for atomic number  46.
 Defaulting to unpruned grid for atomic number  46.
 Defaulting to unpruned grid for atomic number  46.
 Defaulting to unpruned grid for atomic number  46.
 Defaulting to unpruned grid for atomic number  46.
 Defaulting to unpruned grid for atomic number  46.
 Defaulting to unpruned grid for atomic number  46.
 Defaulting to unpruned grid for atomic number  46.
 Defaulting to unpruned grid for atomic number  46.
 Defaulting to unpruned grid for atomic number  46.
 Defaulting to unpruned grid for atomic number  46.
 Defaulting to unpruned grid for atomic number  46.
 Defaulting to unpruned grid for atomic number  46.
 Defaulting to unpruned grid for atomic number  46.
 Defaulting to unpruned grid for atomic number  46.
 Defaulting to unpruned grid for atomic number  46.
 Defaulting to unpruned grid for atomic number  46.
 FoFCou: FMM=F IPFlag=           0 FMFlag=      100000 FMFlg1=        2001
         NFxFlg=           0 DoJE=T BraDBF=F KetDBF=T FulRan=T
         wScrn=  0.000000 ICntrl=     500 IOpCl=  0 I1Cent=   200000004 NGrid=           0
         NMat0=    1 NMatS0=      1 NMatT0=    0 NMatD0=    1 NMtDS0=    0 NMtDT0=    0
 Petite list used in FoFCou.
 Requested convergence on RMS density matrix=1.00D-08 within 128 cycles.
 Requested convergence on MAX density matrix=1.00D-06.
 Requested convergence on             energy=1.00D-06.
 No special actions if energy rises.
 Defaulting to unpruned grid for atomic number  46.
 Defaulting to unpruned grid for atomic number  46.
 Defaulting to unpruned grid for atomic number  46.
 Defaulting to unpruned grid for atomic number  46.
 Defaulting to unpruned grid for atomic number  46.
 Defaulting to unpruned grid for atomic number  46.
 Defaulting to unpruned grid for atomic number  46.
 Defaulting to unpruned grid for atomic number  46.
 Defaulting to unpruned grid for atomic number  46.
 Defaulting to unpruned grid for atomic number  46.
 Defaulting to unpruned grid for atomic number  46.
 Defaulting to unpruned grid for atomic number  46.
 Defaulting to unpruned grid for atomic number  46.
 Defaulting to unpruned grid for atomic number  46.
 Defaulting to unpruned grid for atomic number  46.
 Defaulting to unpruned grid for atomic number  46.
 Defaulting to unpruned grid for atomic number  46.
 Defaulting to unpruned grid for atomic number  46.
 Defaulting to unpruned grid for atomic number  46.
 Defaulting to unpruned grid for atomic number  46.
 Defaulting to unpruned grid for atomic number  46.
 Defaulting to unpruned grid for atomic number  46.
 Defaulting to unpruned grid for atomic number  46.
 Defaulting to unpruned grid for atomic number  46.
 Defaulting to unpruned grid for atomic number  46.
 Defaulting to unpruned grid for atomic number  46.
 Defaulting to unpruned grid for atomic number  46.
 Defaulting to unpruned grid for atomic number  46.
 EnCoef did     3 forward-backward iterations
 EnCoef did     2 forward-backward iterations
 EnCoef did     4 forward-backward iterations
 EnCoef did     2 forward-backward iterations
 Restarting incremental Fock formation.
 SCF Done:  E(RM06) =  -1856.02117075     A.U. after   24 cycles
            NFock= 24  Conv=0.99D-08     -V/T= 2.0507
 DoSCS=F DFT=T ScalE2(SS,OS)=  1.000000  1.000000
 Range of M.O.s used for correlation:     1   632
 NBasis=   634 NAE=   125 NBE=   125 NFC=     0 NFV=     0
 NROrb=    632 NOA=   125 NOB=   125 NVA=   507 NVB=   507

 **** Warning!!: The largest alpha MO coefficient is  0.12605337D+03

   1 Symmetry operations used in ECPInt.
 ECPInt:  NShTT=   25878 NPrTT=  135610 LenC2=   23205 LenP2D=   72413.
 LDataN:  DoStor=T MaxTD1= 6 Len=  172
 Number of processors reduced to   9 by ecpmxn.
 Symmetrizing basis deriv contribution to polar:
 IMax=3 JMax=2 DiffMx= 0.00D+00
 G2DrvN: will do    66 centers at a time, making    1 passes.
 Calling FoFCou, ICntrl=  3107 FMM=T I1Cent=   0 AccDes= 0.00D+00.
 Defaulting to unpruned grid for atomic number  46.
 Defaulting to unpruned grid for atomic number  46.
 Defaulting to unpruned grid for atomic number  46.
 Defaulting to unpruned grid for atomic number  46.
 Defaulting to unpruned grid for atomic number  46.
 Defaulting to unpruned grid for atomic number  46.
 Defaulting to unpruned grid for atomic number  46.
 Defaulting to unpruned grid for atomic number  46.
 Defaulting to unpruned grid for atomic number  46.
 Defaulting to unpruned grid for atomic number  46.
 Defaulting to unpruned grid for atomic number  46.
 Defaulting to unpruned grid for atomic number  46.
 Defaulting to unpruned grid for atomic number  46.
 Defaulting to unpruned grid for atomic number  46.
 Defaulting to unpruned grid for atomic number  46.
 Defaulting to unpruned grid for atomic number  46.
 Defaulting to unpruned grid for atomic number  46.
 Defaulting to unpruned grid for atomic number  46.
 Defaulting to unpruned grid for atomic number  46.
 Defaulting to unpruned grid for atomic number  46.
 Defaulting to unpruned grid for atomic number  46.
 Defaulting to unpruned grid for atomic number  46.
 Defaulting to unpruned grid for atomic number  46.
 Defaulting to unpruned grid for atomic number  46.
 Defaulting to unpruned grid for atomic number  46.
 Defaulting to unpruned grid for atomic number  46.
 Defaulting to unpruned grid for atomic number  46.
 Defaulting to unpruned grid for atomic number  46.
 End of G2Drv F.D. properties file   721 does not exist.
 End of G2Drv F.D. properties file   722 does not exist.
 End of G2Drv F.D. properties file   788 does not exist.
          IDoAtm=11111111111111111111111111111111111111111111111111
          IDoAtm=111111111111111
          Differentiating once with respect to electric field.
                with respect to dipole field.
          Differentiating once with respect to nuclear coordinates.
 Defaulting to unpruned grid for atomic number  46.
 CalDSu exits because no D1Ps are significant.
 Defaulting to unpruned grid for atomic number  46.
 Defaulting to unpruned grid for atomic number  46.
 Defaulting to unpruned grid for atomic number  46.
 Defaulting to unpruned grid for atomic number  46.
 Defaulting to unpruned grid for atomic number  46.
 Defaulting to unpruned grid for atomic number  46.
 Defaulting to unpruned grid for atomic number  46.
 Defaulting to unpruned grid for atomic number  46.
 Defaulting to unpruned grid for atomic number  46.
 Defaulting to unpruned grid for atomic number  46.
 Defaulting to unpruned grid for atomic number  46.
 Defaulting to unpruned grid for atomic number  46.
 Defaulting to unpruned grid for atomic number  46.
 Defaulting to unpruned grid for atomic number  46.
 Defaulting to unpruned grid for atomic number  46.
 Defaulting to unpruned grid for atomic number  46.
 Defaulting to unpruned grid for atomic number  46.
 Defaulting to unpruned grid for atomic number  46.
 Defaulting to unpruned grid for atomic number  46.
 Defaulting to unpruned grid for atomic number  46.
 Defaulting to unpruned grid for atomic number  46.
 Defaulting to unpruned grid for atomic number  46.
 Defaulting to unpruned grid for atomic number  46.
 Defaulting to unpruned grid for atomic number  46.
 Defaulting to unpruned grid for atomic number  46.
 Defaulting to unpruned grid for atomic number  46.
 Defaulting to unpruned grid for atomic number  46.
 Defaulting to unpruned grid for atomic number  46.
          There are   198 degrees of freedom in the 1st order CPHF.  IDoFFX=6 NUNeed=     3.
    198 vectors produced by pass  0 Test12= 6.34D-14 1.00D-09 XBig12= 4.63D+02 8.85D+00.
 AX will form    84 AO Fock derivatives at one time.
    198 vectors produced by pass  1 Test12= 6.34D-14 1.00D-09 XBig12= 8.45D+01 1.27D+00.
    195 vectors produced by pass  2 Test12= 6.34D-14 1.00D-09 XBig12= 1.31D+00 1.18D-01.
    195 vectors produced by pass  3 Test12= 6.34D-14 1.00D-09 XBig12= 8.30D-03 6.78D-03.
    195 vectors produced by pass  4 Test12= 6.34D-14 1.00D-09 XBig12= 4.50D-05 6.11D-04.
    195 vectors produced by pass  5 Test12= 6.34D-14 1.00D-09 XBig12= 1.28D-07 2.11D-05.
    194 vectors produced by pass  6 Test12= 6.34D-14 1.00D-09 XBig12= 2.95D-10 9.48D-07.
    193 vectors produced by pass  7 Test12= 6.34D-14 1.00D-09 XBig12= 1.91D-12 6.39D-08.
    193 vectors produced by pass  8 Test12= 6.34D-14 1.00D-09 XBig12= 1.36D-13 1.73D-08.
    191 vectors produced by pass  9 Test12= 6.34D-14 1.00D-09 XBig12= 6.35D-14 1.13D-08.
    190 vectors produced by pass 10 Test12= 6.34D-14 1.00D-09 XBig12= 8.84D-14 1.19D-08.
    176 vectors produced by pass 11 Test12= 6.34D-14 1.00D-09 XBig12= 5.50D-14 8.65D-09.
    165 vectors produced by pass 12 Test12= 6.34D-14 1.00D-09 XBig12= 7.36D-14 8.59D-09.
    111 vectors produced by pass 13 Test12= 6.34D-14 1.00D-09 XBig12= 4.71D-14 8.41D-09.
     97 vectors produced by pass 14 Test12= 6.34D-14 1.00D-09 XBig12= 3.40D-14 5.79D-09.
     73 vectors produced by pass 15 Test12= 6.34D-14 1.00D-09 XBig12= 2.12D-14 4.91D-09.
     66 vectors produced by pass 16 Test12= 6.34D-14 1.00D-09 XBig12= 1.89D-14 4.40D-09.
     66 vectors produced by pass 17 Test12= 6.34D-14 1.00D-09 XBig12= 2.35D-14 5.08D-09.
     60 vectors produced by pass 18 Test12= 6.34D-14 1.00D-09 XBig12= 2.05D-14 4.73D-09.
     45 vectors produced by pass 19 Test12= 6.34D-14 1.00D-09 XBig12= 1.19D-14 3.74D-09.
     44 vectors produced by pass 20 Test12= 6.34D-14 1.00D-09 XBig12= 1.52D-14 4.34D-09.
     44 vectors produced by pass 21 Test12= 6.34D-14 1.00D-09 XBig12= 1.96D-14 5.04D-09.
     27 vectors produced by pass 22 Test12= 6.34D-14 1.00D-09 XBig12= 7.88D-15 2.64D-09.
     26 vectors produced by pass 23 Test12= 6.34D-14 1.00D-09 XBig12= 7.81D-15 3.05D-09.
     14 vectors produced by pass 24 Test12= 6.34D-14 1.00D-09 XBig12= 4.98D-15 2.29D-09.
     14 vectors produced by pass 25 Test12= 6.34D-14 1.00D-09 XBig12= 8.77D-15 3.07D-09.
     14 vectors produced by pass 26 Test12= 6.34D-14 1.00D-09 XBig12= 1.10D-14 3.21D-09.
     14 vectors produced by pass 27 Test12= 6.34D-14 1.00D-09 XBig12= 1.24D-14 3.57D-09.
     14 vectors produced by pass 28 Test12= 6.34D-14 1.00D-09 XBig12= 6.13D-15 2.61D-09.
     14 vectors produced by pass 29 Test12= 6.34D-14 1.00D-09 XBig12= 5.37D-15 2.40D-09.
     14 vectors produced by pass 30 Test12= 6.34D-14 1.00D-09 XBig12= 1.12D-14 3.66D-09.
     14 vectors produced by pass 31 Test12= 6.34D-14 1.00D-09 XBig12= 8.29D-15 3.23D-09.
     14 vectors produced by pass 32 Test12= 6.34D-14 1.00D-09 XBig12= 1.35D-14 3.50D-09.
     14 vectors produced by pass 33 Test12= 6.34D-14 1.00D-09 XBig12= 1.15D-14 3.17D-09.
     14 vectors produced by pass 34 Test12= 6.34D-14 1.00D-09 XBig12= 5.18D-15 2.41D-09.
     14 vectors produced by pass 35 Test12= 6.34D-14 1.00D-09 XBig12= 1.07D-14 3.50D-09.
     14 vectors produced by pass 36 Test12= 6.34D-14 1.00D-09 XBig12= 1.50D-14 3.92D-09.
     14 vectors produced by pass 37 Test12= 6.34D-14 1.00D-09 XBig12= 9.95D-15 4.58D-09.
     14 vectors produced by pass 38 Test12= 6.34D-14 1.00D-09 XBig12= 1.09D-14 3.17D-09.
     14 vectors produced by pass 39 Test12= 6.34D-14 1.00D-09 XBig12= 1.45D-14 4.23D-09.
     14 vectors produced by pass 40 Test12= 6.34D-14 1.00D-09 XBig12= 1.01D-14 3.47D-09.
     14 vectors produced by pass 41 Test12= 6.34D-14 1.00D-09 XBig12= 8.74D-15 2.90D-09.
     14 vectors produced by pass 42 Test12= 6.34D-14 1.00D-09 XBig12= 9.86D-15 3.13D-09.
     14 vectors produced by pass 43 Test12= 6.34D-14 1.00D-09 XBig12= 4.58D-15 2.04D-09.
     14 vectors produced by pass 44 Test12= 6.34D-14 1.00D-09 XBig12= 1.04D-14 3.23D-09.
     14 vectors produced by pass 45 Test12= 6.34D-14 1.00D-09 XBig12= 7.07D-15 2.53D-09.
     14 vectors produced by pass 46 Test12= 6.34D-14 1.00D-09 XBig12= 5.04D-15 2.19D-09.
     14 vectors produced by pass 47 Test12= 6.34D-14 1.00D-09 XBig12= 1.08D-14 3.25D-09.
     13 vectors produced by pass 48 Test12= 6.34D-14 1.00D-09 XBig12= 3.83D-15 1.83D-09.
     13 vectors produced by pass 49 Test12= 6.34D-14 1.00D-09 XBig12= 7.64D-15 2.86D-09.
     13 vectors produced by pass 50 Test12= 6.34D-14 1.00D-09 XBig12= 6.31D-15 2.39D-09.
     13 vectors produced by pass 51 Test12= 6.34D-14 1.00D-09 XBig12= 7.80D-15 3.26D-09.
     12 vectors produced by pass 52 Test12= 6.34D-14 1.00D-09 XBig12= 3.38D-15 1.84D-09.
     12 vectors produced by pass 53 Test12= 6.34D-14 1.00D-09 XBig12= 7.80D-15 2.82D-09.
     12 vectors produced by pass 54 Test12= 6.34D-14 1.00D-09 XBig12= 9.74D-15 2.94D-09.
     12 vectors produced by pass 55 Test12= 6.34D-14 1.00D-09 XBig12= 8.46D-15 2.88D-09.
     11 vectors produced by pass 56 Test12= 6.34D-14 1.00D-09 XBig12= 3.94D-15 2.15D-09.
     11 vectors produced by pass 57 Test12= 6.34D-14 1.00D-09 XBig12= 9.02D-15 2.79D-09.
     11 vectors produced by pass 58 Test12= 6.34D-14 1.00D-09 XBig12= 7.54D-15 2.69D-09.
     11 vectors produced by pass 59 Test12= 6.34D-14 1.00D-09 XBig12= 3.91D-15 1.80D-09.
     11 vectors produced by pass 60 Test12= 6.34D-14 1.00D-09 XBig12= 1.12D-14 2.93D-09.
     11 vectors produced by pass 61 Test12= 6.34D-14 1.00D-09 XBig12= 7.33D-15 2.62D-09.
     11 vectors produced by pass 62 Test12= 6.34D-14 1.00D-09 XBig12= 4.39D-15 2.09D-09.
     11 vectors produced by pass 63 Test12= 6.34D-14 1.00D-09 XBig12= 9.37D-15 2.85D-09.
     11 vectors produced by pass 64 Test12= 6.34D-14 1.00D-09 XBig12= 5.01D-15 2.17D-09.
     11 vectors produced by pass 65 Test12= 6.34D-14 1.00D-09 XBig12= 1.07D-14 3.04D-09.
     11 vectors produced by pass 66 Test12= 6.34D-14 1.00D-09 XBig12= 6.97D-15 2.48D-09.
     11 vectors produced by pass 67 Test12= 6.34D-14 1.00D-09 XBig12= 2.98D-15 1.93D-09.
     11 vectors produced by pass 68 Test12= 6.34D-14 1.00D-09 XBig12= 8.02D-15 2.79D-09.
     11 vectors produced by pass 69 Test12= 6.34D-14 1.00D-09 XBig12= 4.47D-15 2.16D-09.
     11 vectors produced by pass 70 Test12= 6.34D-14 1.00D-09 XBig12= 6.95D-15 2.63D-09.
     11 vectors produced by pass 71 Test12= 6.34D-14 1.00D-09 XBig12= 3.46D-15 1.87D-09.
     11 vectors produced by pass 72 Test12= 6.34D-14 1.00D-09 XBig12= 6.62D-15 2.64D-09.
     11 vectors produced by pass 73 Test12= 6.34D-14 1.00D-09 XBig12= 5.86D-15 2.50D-09.
     11 vectors produced by pass 74 Test12= 6.34D-14 1.00D-09 XBig12= 3.93D-15 2.08D-09.
     11 vectors produced by pass 75 Test12= 6.34D-14 1.00D-09 XBig12= 5.14D-15 2.50D-09.
     11 vectors produced by pass 76 Test12= 6.34D-14 1.00D-09 XBig12= 5.28D-15 2.44D-09.
      7 vectors produced by pass 77 Test12= 6.34D-14 1.00D-09 XBig12= 2.11D-15 1.38D-09.
      6 vectors produced by pass 78 Test12= 6.34D-14 1.00D-09 XBig12= 2.65D-15 1.75D-09.
      6 vectors produced by pass 79 Test12= 6.34D-14 1.00D-09 XBig12= 7.57D-15 2.80D-09.
      6 vectors produced by pass 80 Test12= 6.34D-14 1.00D-09 XBig12= 3.93D-15 2.20D-09.
      6 vectors produced by pass 81 Test12= 6.34D-14 1.00D-09 XBig12= 2.57D-15 1.62D-09.
      6 vectors produced by pass 82 Test12= 6.34D-14 1.00D-09 XBig12= 6.25D-15 2.75D-09.
      6 vectors produced by pass 83 Test12= 6.34D-14 1.00D-09 XBig12= 3.29D-15 1.68D-09.
      6 vectors produced by pass 84 Test12= 6.34D-14 1.00D-09 XBig12= 3.52D-15 1.70D-09.
      6 vectors produced by pass 85 Test12= 6.34D-14 1.00D-09 XBig12= 3.84D-15 1.81D-09.
      6 vectors produced by pass 86 Test12= 6.34D-14 1.00D-09 XBig12= 5.90D-15 2.26D-09.
      3 vectors produced by pass 87 Test12= 6.34D-14 1.00D-09 XBig12= 1.60D-15 1.35D-09.
      3 vectors produced by pass 88 Test12= 6.34D-14 1.00D-09 XBig12= 2.40D-15 1.52D-09.
      3 vectors produced by pass 89 Test12= 6.34D-14 1.00D-09 XBig12= 3.59D-15 1.70D-09.
      3 vectors produced by pass 90 Test12= 6.34D-14 1.00D-09 XBig12= 5.85D-15 2.16D-09.
      3 vectors produced by pass 91 Test12= 6.34D-14 1.00D-09 XBig12= 2.27D-15 1.30D-09.
      3 vectors produced by pass 92 Test12= 6.34D-14 1.00D-09 XBig12= 2.76D-15 1.77D-09.
      3 vectors produced by pass 93 Test12= 6.34D-14 1.00D-09 XBig12= 2.53D-15 1.76D-09.
      3 vectors produced by pass 94 Test12= 6.34D-14 1.00D-09 XBig12= 3.32D-15 1.78D-09.
      3 vectors produced by pass 95 Test12= 6.34D-14 1.00D-09 XBig12= 3.64D-15 1.82D-09.
      3 vectors produced by pass 96 Test12= 6.34D-14 1.00D-09 XBig12= 3.09D-15 1.79D-09.
      3 vectors produced by pass 97 Test12= 6.34D-14 1.00D-09 XBig12= 5.77D-15 2.23D-09.
      3 vectors produced by pass 98 Test12= 6.34D-14 1.00D-09 XBig12= 2.57D-15 1.67D-09.
      3 vectors produced by pass 99 Test12= 6.34D-14 1.00D-09 XBig12= 2.34D-15 1.55D-09.
      3 vectors produced by pass100 Test12= 6.34D-14 1.00D-09 XBig12= 7.01D-15 2.97D-09.
      3 vectors produced by pass101 Test12= 6.34D-14 1.00D-09 XBig12= 6.48D-15 2.45D-09.
      3 vectors produced by pass102 Test12= 6.34D-14 1.00D-09 XBig12= 2.76D-15 1.74D-09.
      3 vectors produced by pass103 Test12= 6.34D-14 1.00D-09 XBig12= 4.98D-15 2.36D-09.
      3 vectors produced by pass104 Test12= 6.34D-14 1.00D-09 XBig12= 4.55D-15 2.41D-09.
      3 vectors produced by pass105 Test12= 6.34D-14 1.00D-09 XBig12= 1.58D-15 1.12D-09.
      3 vectors produced by pass106 Test12= 6.34D-14 1.00D-09 XBig12= 5.63D-15 2.57D-09.
      3 vectors produced by pass107 Test12= 6.34D-14 1.00D-09 XBig12= 5.82D-15 2.49D-09.
      3 vectors produced by pass108 Test12= 6.34D-14 1.00D-09 XBig12= 2.86D-15 1.51D-09.
      3 vectors produced by pass109 Test12= 6.34D-14 1.00D-09 XBig12= 5.22D-15 2.00D-09.
      3 vectors produced by pass110 Test12= 6.34D-14 1.00D-09 XBig12= 5.93D-15 2.11D-09.
      3 vectors produced by pass111 Test12= 6.34D-14 1.00D-09 XBig12= 6.81D-15 2.42D-09.
      3 vectors produced by pass112 Test12= 6.34D-14 1.00D-09 XBig12= 3.20D-15 1.73D-09.
      3 vectors produced by pass113 Test12= 6.34D-14 1.00D-09 XBig12= 4.75D-15 2.20D-09.
      3 vectors produced by pass114 Test12= 6.34D-14 1.00D-09 XBig12= 4.18D-15 2.13D-09.
      3 vectors produced by pass115 Test12= 6.34D-14 1.00D-09 XBig12= 4.58D-15 2.06D-09.
      3 vectors produced by pass116 Test12= 6.34D-14 1.00D-09 XBig12= 5.05D-15 2.02D-09.
      3 vectors produced by pass117 Test12= 6.34D-14 1.00D-09 XBig12= 3.59D-15 1.95D-09.
      3 vectors produced by pass118 Test12= 6.34D-14 1.00D-09 XBig12= 4.65D-15 2.12D-09.
      3 vectors produced by pass119 Test12= 6.34D-14 1.00D-09 XBig12= 5.81D-15 2.11D-09.
      3 vectors produced by pass120 Test12= 6.34D-14 1.00D-09 XBig12= 5.45D-15 2.14D-09.
      3 vectors produced by pass121 Test12= 6.34D-14 1.00D-09 XBig12= 4.89D-15 2.30D-09.
      3 vectors produced by pass122 Test12= 6.34D-14 1.00D-09 XBig12= 4.60D-15 2.28D-09.
      3 vectors produced by pass123 Test12= 6.34D-14 1.00D-09 XBig12= 2.41D-15 1.59D-09.
      3 vectors produced by pass124 Test12= 6.34D-14 1.00D-09 XBig12= 2.50D-15 1.44D-09.
      3 vectors produced by pass125 Test12= 6.34D-14 1.00D-09 XBig12= 2.35D-15 1.56D-09.
      3 vectors produced by pass126 Test12= 6.34D-14 1.00D-09 XBig12= 6.29D-15 2.53D-09.
      3 vectors produced by pass127 Test12= 6.34D-14 1.00D-09 XBig12= 3.88D-15 1.93D-09.
      3 vectors produced by pass128 Test12= 6.34D-14 1.00D-09 XBig12= 3.70D-15 1.72D-09.
      3 vectors produced by pass129 Test12= 6.34D-14 1.00D-09 XBig12= 4.44D-15 1.77D-09.
      3 vectors produced by pass130 Test12= 6.34D-14 1.00D-09 XBig12= 5.00D-15 2.01D-09.
      3 vectors produced by pass131 Test12= 6.34D-14 1.00D-09 XBig12= 4.03D-15 1.86D-09.
      3 vectors produced by pass132 Test12= 6.34D-14 1.00D-09 XBig12= 3.14D-15 1.92D-09.
      3 vectors produced by pass133 Test12= 6.34D-14 1.00D-09 XBig12= 2.67D-15 1.50D-09.
      3 vectors produced by pass134 Test12= 6.34D-14 1.00D-09 XBig12= 3.66D-15 1.84D-09.
      3 vectors produced by pass135 Test12= 6.34D-14 1.00D-09 XBig12= 5.30D-15 2.29D-09.
      3 vectors produced by pass136 Test12= 6.34D-14 1.00D-09 XBig12= 2.29D-15 1.63D-09.
      3 vectors produced by pass137 Test12= 6.34D-14 1.00D-09 XBig12= 2.72D-15 1.64D-09.
      3 vectors produced by pass138 Test12= 6.34D-14 1.00D-09 XBig12= 4.15D-15 2.20D-09.
      3 vectors produced by pass139 Test12= 6.34D-14 1.00D-09 XBig12= 3.86D-15 1.70D-09.
      3 vectors produced by pass140 Test12= 6.34D-14 1.00D-09 XBig12= 2.80D-15 1.63D-09.
      3 vectors produced by pass141 Test12= 6.34D-14 1.00D-09 XBig12= 4.69D-15 2.63D-09.
      3 vectors produced by pass142 Test12= 6.34D-14 1.00D-09 XBig12= 3.76D-15 1.96D-09.
      3 vectors produced by pass143 Test12= 6.34D-14 1.00D-09 XBig12= 3.66D-15 1.92D-09.
      3 vectors produced by pass144 Test12= 6.34D-14 1.00D-09 XBig12= 2.43D-15 1.49D-09.
      3 vectors produced by pass145 Test12= 6.34D-14 1.00D-09 XBig12= 3.12D-15 1.94D-09.
      3 vectors produced by pass146 Test12= 6.34D-14 1.00D-09 XBig12= 2.98D-15 1.61D-09.
      3 vectors produced by pass147 Test12= 6.34D-14 1.00D-09 XBig12= 4.11D-15 2.02D-09.
      3 vectors produced by pass148 Test12= 6.34D-14 1.00D-09 XBig12= 2.91D-15 1.58D-09.
      3 vectors produced by pass149 Test12= 6.34D-14 1.00D-09 XBig12= 4.13D-15 1.90D-09.
      2 vectors produced by pass150 Test12= 6.34D-14 1.00D-09 XBig12= 2.33D-15 1.74D-09.
 InvSVY:  IOpt=1 It=  1 EMax= 8.88D-15
 Solved reduced A of dimension  4056 with   198 vectors.
 Isotropic polarizability for W=    0.000000      344.03 Bohr**3.
 End of Minotr F.D. properties file   721 does not exist.
 End of Minotr F.D. properties file   722 does not exist.
 End of Minotr F.D. properties file   788 does not exist.

 **********************************************************************

            Population analysis using the SCF density.

 **********************************************************************

 Orbital symmetries:
       Occupied  (A) (A) (A) (A) (A) (A) (A) (A) (A) (A) (A) (A)
                 (A) (A) (A) (A) (A) (A) (A) (A) (A) (A) (A) (A)
                 (A) (A) (A) (A) (A) (A) (A) (A) (A) (A) (A) (A)
                 (A) (A) (A) (A) (A) (A) (A) (A) (A) (A) (A) (A)
                 (A) (A) (A) (A) (A) (A) (A) (A) (A) (A) (A) (A)
                 (A) (A) (A) (A) (A) (A) (A) (A) (A) (A) (A) (A)
                 (A) (A) (A) (A) (A) (A) (A) (A) (A) (A) (A) (A)
                 (A) (A) (A) (A) (A) (A) (A) (A) (A) (A) (A) (A)
                 (A) (A) (A) (A) (A) (A) (A) (A) (A) (A) (A) (A)
                 (A) (A) (A) (A) (A) (A) (A) (A) (A) (A) (A) (A)
                 (A) (A) (A) (A) (A)
       Virtual   (A) (A) (A) (A) (A) (A) (A) (A) (A) (A) (A) (A)
                 (A) (A) (A) (A) (A) (A) (A) (A) (A) (A) (A) (A)
                 (A) (A) (A) (A) (A) (A) (A) (A) (A) (A) (A) (A)
                 (A) (A) (A) (A) (A) (A) (A) (A) (A) (A) (A) (A)
                 (A) (A) (A) (A) (A) (A) (A) (A) (A) (A) (A) (A)
                 (A) (A) (A) (A) (A) (A) (A) (A) (A) (A) (A) (A)
                 (A) (A) (A) (A) (A) (A) (A) (A) (A) (A) (A) (A)
                 (A) (A) (A) (A) (A) (A) (A) (A) (A) (A) (A) (A)
                 (A) (A) (A) (A) (A) (A) (A) (A) (A) (A) (A) (A)
                 (A) (A) (A) (A) (A) (A) (A) (A) (A) (A) (A) (A)
                 (A) (A) (A) (A) (A) (A) (A) (A) (A) (A) (A) (A)
                 (A) (A) (A) (A) (A) (A) (A) (A) (A) (A) (A) (A)
                 (A) (A) (A) (A) (A) (A) (A) (A) (A) (A) (A) (A)
                 (A) (A) (A) (A) (A) (A) (A) (A) (A) (A) (A) (A)
                 (A) (A) (A) (A) (A) (A) (A) (A) (A) (A) (A) (A)
                 (A) (A) (A) (A) (A) (A) (A) (A) (A) (A) (A) (A)
                 (A) (A) (A) (A) (A) (A) (A) (A) (A) (A) (A) (A)
                 (A) (A) (A) (A) (A) (A) (A) (A) (A) (A) (A) (A)
                 (A) (A) (A) (A) (A) (A) (A) (A) (A) (A) (A) (A)
                 (A) (A) (A) (A) (A) (A) (A) (A) (A) (A) (A) (A)
                 (A) (A) (A) (A) (A) (A) (A) (A) (A) (A) (A) (A)
                 (A) (A) (A) (A) (A) (A) (A) (A) (A) (A) (A) (A)
                 (A) (A) (A) (A) (A) (A) (A) (A) (A) (A) (A) (A)
                 (A) (A) (A) (A) (A) (A) (A) (A) (A) (A) (A) (A)
                 (A) (A) (A) (A) (A) (A) (A) (A) (A) (A) (A) (A)
                 (A) (A) (A) (A) (A) (A) (A) (A) (A) (A) (A) (A)
                 (A) (A) (A) (A) (A) (A) (A) (A) (A) (A) (A) (A)
                 (A) (A) (A) (A) (A) (A) (A) (A) (A) (A) (A) (A)
                 (A) (A) (A) (A) (A) (A) (A) (A) (A) (A) (A) (A)
                 (A) (A) (A) (A) (A) (A) (A) (A) (A) (A) (A) (A)
                 (A) (A) (A) (A) (A) (A) (A) (A) (A) (A) (A) (A)
                 (A) (A) (A) (A) (A) (A) (A) (A) (A) (A) (A) (A)
                 (A) (A) (A) (A) (A) (A) (A) (A) (A) (A) (A) (A)
                 (A) (A) (A) (A) (A) (A) (A) (A) (A) (A) (A) (A)
                 (A) (A) (A) (A) (A) (A) (A) (A) (A) (A) (A) (A)
                 (A) (A) (A) (A) (A) (A) (A) (A) (A) (A) (A) (A)
                 (A) (A) (A) (A) (A) (A) (A) (A) (A) (A) (A) (A)
                 (A) (A) (A) (A) (A) (A) (A) (A) (A) (A) (A) (A)
                 (A) (A) (A) (A) (A) (A) (A) (A) (A) (A) (A) (A)
                 (A) (A) (A) (A) (A) (A) (A) (A) (A) (A) (A) (A)
                 (A) (A) (A) (A) (A) (A) (A) (A) (A) (A) (A) (A)
                 (A) (A) (A) (A) (A) (A) (A) (A) (A) (A) (A) (A)
                 (A) (A) (A)
 The electronic state is 1-A.
 Alpha  occ. eigenvalues -- -101.85004 -19.40821 -19.35574 -19.31821 -14.58225
 Alpha  occ. eigenvalues --  -14.54222 -10.49206 -10.49054 -10.45241 -10.43901
 Alpha  occ. eigenvalues --  -10.42489 -10.42168 -10.41948 -10.41489 -10.41146
 Alpha  occ. eigenvalues --  -10.40983 -10.40903 -10.40537 -10.40309 -10.37329
 Alpha  occ. eigenvalues --  -10.36639 -10.36528 -10.36062 -10.35337 -10.35066
 Alpha  occ. eigenvalues --  -10.34854 -10.34667 -10.33193 -10.33173 -10.33027
 Alpha  occ. eigenvalues --   -9.72289  -7.43532  -7.42525  -7.42468  -3.45674
 Alpha  occ. eigenvalues --   -2.19942  -2.19818  -2.16922  -1.26049  -1.17744
 Alpha  occ. eigenvalues --   -1.15686  -1.13360  -1.06359  -1.01728  -0.97615
 Alpha  occ. eigenvalues --   -0.96902  -0.95612  -0.95205  -0.92027  -0.89632
 Alpha  occ. eigenvalues --   -0.87649  -0.87344  -0.84484  -0.82119  -0.81039
 Alpha  occ. eigenvalues --   -0.79886  -0.79694  -0.79036  -0.78867  -0.77828
 Alpha  occ. eigenvalues --   -0.76173  -0.72104  -0.71658  -0.70621  -0.68222
 Alpha  occ. eigenvalues --   -0.67108  -0.66340  -0.65416  -0.65175  -0.64194
 Alpha  occ. eigenvalues --   -0.62892  -0.61656  -0.61078  -0.60624  -0.60150
 Alpha  occ. eigenvalues --   -0.58892  -0.58671  -0.58314  -0.57671  -0.57221
 Alpha  occ. eigenvalues --   -0.56396  -0.56176  -0.55779  -0.55596  -0.55154
 Alpha  occ. eigenvalues --   -0.54827  -0.53802  -0.53440  -0.53152  -0.52765
 Alpha  occ. eigenvalues --   -0.52705  -0.51961  -0.51918  -0.51382  -0.51205
 Alpha  occ. eigenvalues --   -0.50496  -0.50257  -0.49741  -0.49107  -0.48681
 Alpha  occ. eigenvalues --   -0.48353  -0.48063  -0.47883  -0.47658  -0.47400
 Alpha  occ. eigenvalues --   -0.47038  -0.46930  -0.46227  -0.45896  -0.45481
 Alpha  occ. eigenvalues --   -0.44882  -0.44343  -0.43981  -0.43491  -0.43097
 Alpha  occ. eigenvalues --   -0.42546  -0.41783  -0.40950  -0.40174  -0.39415
 Alpha  occ. eigenvalues --   -0.39057  -0.37687  -0.36941  -0.35333  -0.35263
 Alpha virt. eigenvalues --   -0.19500  -0.18762  -0.17101  -0.15921  -0.12720
 Alpha virt. eigenvalues --   -0.12487  -0.11579  -0.10705  -0.10514  -0.10184
 Alpha virt. eigenvalues --   -0.09976  -0.09594  -0.09092  -0.09007  -0.08614
 Alpha virt. eigenvalues --   -0.08401  -0.08146  -0.08027  -0.07485  -0.07398
 Alpha virt. eigenvalues --   -0.07301  -0.06942  -0.06535  -0.06088  -0.05908
 Alpha virt. eigenvalues --   -0.05756  -0.05414  -0.04900  -0.04509  -0.04477
 Alpha virt. eigenvalues --   -0.04297  -0.04130  -0.03824  -0.03676  -0.03467
 Alpha virt. eigenvalues --   -0.03328  -0.02831  -0.02714  -0.02256  -0.01992
 Alpha virt. eigenvalues --   -0.01751  -0.01609  -0.01527  -0.01093  -0.00839
 Alpha virt. eigenvalues --   -0.00669  -0.00554  -0.00113   0.00198   0.00597
 Alpha virt. eigenvalues --    0.00656   0.00698   0.01112   0.01318   0.01533
 Alpha virt. eigenvalues --    0.01887   0.02199   0.02264   0.02759   0.02860
 Alpha virt. eigenvalues --    0.03111   0.03405   0.03528   0.03750   0.03878
 Alpha virt. eigenvalues --    0.03961   0.04283   0.04606   0.04640   0.04974
 Alpha virt. eigenvalues --    0.05297   0.05491   0.05552   0.05873   0.06009
 Alpha virt. eigenvalues --    0.06158   0.06409   0.06605   0.06915   0.07245
 Alpha virt. eigenvalues --    0.07574   0.07807   0.08005   0.08181   0.08320
 Alpha virt. eigenvalues --    0.08370   0.08727   0.09040   0.09167   0.09308
 Alpha virt. eigenvalues --    0.09586   0.09652   0.09922   0.10057   0.10261
 Alpha virt. eigenvalues --    0.10409   0.10925   0.11019   0.11119   0.11334
 Alpha virt. eigenvalues --    0.11706   0.11749   0.11806   0.12175   0.12506
 Alpha virt. eigenvalues --    0.12697   0.12711   0.12926   0.13129   0.13195
 Alpha virt. eigenvalues --    0.13474   0.13814   0.14042   0.14320   0.14409
 Alpha virt. eigenvalues --    0.14664   0.14809   0.14984   0.15374   0.15498
 Alpha virt. eigenvalues --    0.15707   0.16000   0.16154   0.16433   0.16727
 Alpha virt. eigenvalues --    0.16812   0.16979   0.17296   0.17460   0.17773
 Alpha virt. eigenvalues --    0.17840   0.18059   0.18456   0.18883   0.19097
 Alpha virt. eigenvalues --    0.19283   0.19557   0.19802   0.20006   0.20476
 Alpha virt. eigenvalues --    0.20665   0.20958   0.21109   0.21219   0.21637
 Alpha virt. eigenvalues --    0.21988   0.22249   0.22571   0.22854   0.23163
 Alpha virt. eigenvalues --    0.23337   0.23579   0.23772   0.24220   0.24315
 Alpha virt. eigenvalues --    0.24729   0.25096   0.25291   0.25914   0.26206
 Alpha virt. eigenvalues --    0.26402   0.26641   0.27137   0.27349   0.27906
 Alpha virt. eigenvalues --    0.28188   0.28496   0.29169   0.29510   0.29870
 Alpha virt. eigenvalues --    0.30485   0.30941   0.31411   0.31442   0.31722
 Alpha virt. eigenvalues --    0.32375   0.32728   0.33036   0.33749   0.34397
 Alpha virt. eigenvalues --    0.34847   0.35563   0.35664   0.36093   0.37408
 Alpha virt. eigenvalues --    0.37855   0.38412   0.39453   0.40313   0.40462
 Alpha virt. eigenvalues --    0.41737   0.42414   0.43487   0.43836   0.45438
 Alpha virt. eigenvalues --    0.46311   0.49296   0.49680   0.53141   0.54266
 Alpha virt. eigenvalues --    0.55319   0.55953   0.56365   0.56842   0.57341
 Alpha virt. eigenvalues --    0.57837   0.58058   0.58592   0.59318   0.60029
 Alpha virt. eigenvalues --    0.60508   0.60753   0.61101   0.61670   0.62333
 Alpha virt. eigenvalues --    0.62553   0.63056   0.63423   0.64125   0.64654
 Alpha virt. eigenvalues --    0.64898   0.65061   0.65359   0.66035   0.66535
 Alpha virt. eigenvalues --    0.66893   0.67038   0.67145   0.67424   0.69206
 Alpha virt. eigenvalues --    0.69314   0.69740   0.70163   0.70267   0.71048
 Alpha virt. eigenvalues --    0.71275   0.71584   0.72020   0.72682   0.73091
 Alpha virt. eigenvalues --    0.73462   0.74019   0.74709   0.74918   0.75427
 Alpha virt. eigenvalues --    0.75833   0.76318   0.77510   0.77985   0.78034
 Alpha virt. eigenvalues --    0.78670   0.78914   0.79073   0.79546   0.80156
 Alpha virt. eigenvalues --    0.80800   0.81212   0.81454   0.82274   0.82773
 Alpha virt. eigenvalues --    0.82940   0.83767   0.84204   0.84451   0.85032
 Alpha virt. eigenvalues --    0.85387   0.85872   0.87223   0.87298   0.87970
 Alpha virt. eigenvalues --    0.88726   0.89141   0.89679   0.89786   0.90095
 Alpha virt. eigenvalues --    0.91040   0.91495   0.92712   0.92795   0.93267
 Alpha virt. eigenvalues --    0.93580   0.94004   0.94210   0.95271   0.95362
 Alpha virt. eigenvalues --    0.96235   0.96815   0.97849   0.98138   0.98483
 Alpha virt. eigenvalues --    0.98824   0.99378   1.00510   1.00602   1.01233
 Alpha virt. eigenvalues --    1.01589   1.01837   1.02278   1.03160   1.03688
 Alpha virt. eigenvalues --    1.04230   1.05043   1.05103   1.05789   1.06993
 Alpha virt. eigenvalues --    1.07027   1.07633   1.08265   1.08407   1.09212
 Alpha virt. eigenvalues --    1.09928   1.10318   1.11463   1.11924   1.12763
 Alpha virt. eigenvalues --    1.13751   1.13990   1.15341   1.16123   1.16299
 Alpha virt. eigenvalues --    1.17142   1.18148   1.18452   1.19362   1.20559
 Alpha virt. eigenvalues --    1.21332   1.22141   1.22523   1.23279   1.24189
 Alpha virt. eigenvalues --    1.24860   1.26052   1.26540   1.27754   1.28713
 Alpha virt. eigenvalues --    1.29001   1.29120   1.30717   1.31708   1.31980
 Alpha virt. eigenvalues --    1.32744   1.34053   1.34797   1.35766   1.36732
 Alpha virt. eigenvalues --    1.37194   1.37913   1.38880   1.39051   1.39952
 Alpha virt. eigenvalues --    1.40256   1.40969   1.42117   1.43096   1.44173
 Alpha virt. eigenvalues --    1.44514   1.45732   1.45920   1.48706   1.49703
 Alpha virt. eigenvalues --    1.50438   1.52119   1.52725   1.53878   1.54883
 Alpha virt. eigenvalues --    1.56027   1.57997   1.58903   1.60533   1.62084
 Alpha virt. eigenvalues --    1.62402   1.62852   1.64587   1.65715   1.66919
 Alpha virt. eigenvalues --    1.67859   1.68035   1.69459   1.69730   1.70898
 Alpha virt. eigenvalues --    1.71322   1.71976   1.72797   1.73894   1.74693
 Alpha virt. eigenvalues --    1.74743   1.75219   1.76615   1.76883   1.77025
 Alpha virt. eigenvalues --    1.77795   1.78827   1.79430   1.80000   1.81114
 Alpha virt. eigenvalues --    1.81884   1.82768   1.83025   1.83836   1.84012
 Alpha virt. eigenvalues --    1.85141   1.85554   1.86783   1.87450   1.88407
 Alpha virt. eigenvalues --    1.88569   1.89932   1.91343   1.91889   1.92393
 Alpha virt. eigenvalues --    1.92855   1.93815   1.94359   1.94729   1.95577
 Alpha virt. eigenvalues --    1.96747   1.96983   1.98273   1.98893   2.00567
 Alpha virt. eigenvalues --    2.01170   2.01828   2.02217   2.02530   2.02992
 Alpha virt. eigenvalues --    2.04641   2.04942   2.05952   2.07259   2.07620
 Alpha virt. eigenvalues --    2.08746   2.09308   2.09521   2.10311   2.11594
 Alpha virt. eigenvalues --    2.11793   2.12038   2.12596   2.13340   2.13743
 Alpha virt. eigenvalues --    2.14241   2.15073   2.15596   2.15896   2.17248
 Alpha virt. eigenvalues --    2.17458   2.19006   2.19538   2.20396   2.20695
 Alpha virt. eigenvalues --    2.21545   2.22935   2.23730   2.26085   2.26187
 Alpha virt. eigenvalues --    2.27663   2.28739   2.30336   2.30901   2.32033
 Alpha virt. eigenvalues --    2.34041   2.35350   2.36834   2.37281   2.39007
 Alpha virt. eigenvalues --    2.40383   2.40714   2.42102   2.42711   2.44313
 Alpha virt. eigenvalues --    2.44532   2.46122   2.47231   2.48420   2.50467
 Alpha virt. eigenvalues --    2.51253   2.53160   2.53943   2.54861   2.55792
 Alpha virt. eigenvalues --    2.58951   2.59896   2.62835   2.64072   2.65353
 Alpha virt. eigenvalues --    2.67883   2.69780   2.70181   2.70850   2.71312
 Alpha virt. eigenvalues --    2.72414   2.73768   2.76406   2.77492   2.81009
 Alpha virt. eigenvalues --    2.81809   2.83372   2.87014   2.88204   2.93655
 Alpha virt. eigenvalues --    2.96824   3.00475   3.04744   3.13083   3.16842
 Alpha virt. eigenvalues --    3.26796  21.80538
          Condensed to atoms (all electrons):
 Mulliken charges:
               1
     1  C   -0.155034
     2  C   -0.499475
     3  C   -0.204215
     4  C   -0.135593
     5  H    0.252986
     6  C   -0.195016
     7  N    0.204757
     8  H    0.249789
     9  H    0.263856
    10  Cl   0.393586
    11  C   -0.137310
    12  O   -0.223727
    13  N    0.232492
    14  C   -0.125125
    15  H    0.236704
    16  H    0.243079
    17  C   -0.559620
    18  C   -0.605677
    19  H    0.256251
    20  Pd  -0.425620
    21  C   -0.459386
    22  C   -0.276050
    23  C    0.163569
    24  C   -0.130171
    25  C   -0.308511
    26  H    0.228106
    27  H    0.231824
    28  C   -0.099457
    29  H    0.234056
    30  H    0.244835
    31  C   -0.321315
    32  C   -0.693984
    33  H    0.248854
    34  C   -0.159917
    35  H    0.214296
    36  H    0.204785
    37  C    0.057454
    38  O   -0.299586
    39  H    0.256916
    40  H    0.218128
    41  H    0.261842
    42  C   -0.441193
    43  H    0.244958
    44  H    0.249880
    45  H    0.240911
    46  O   -0.676182
    47  H    0.555484
    48  H    0.257914
    49  H    0.273463
    50  C   -0.366134
    51  H    0.245277
    52  H    0.214959
    53  H    0.259686
    54  C   -0.291804
    55  H    0.237301
    56  H    0.230118
    57  H    0.225639
    58  C   -0.334894
    59  H    0.242571
    60  H    0.237617
    61  H    0.219190
    62  C   -0.371560
    63  H    0.234238
    64  H    0.205002
    65  H    0.224183
 Sum of Mulliken charges =   1.00000
 Mulliken charges with hydrogens summed into heavy atoms:
               1
     1  C   -0.155034
     2  C   -0.235619
     3  C    0.045574
     4  C    0.117393
     6  C   -0.195016
     7  N    0.204757
    10  Cl   0.393586
    11  C   -0.137310
    12  O   -0.223727
    13  N    0.232492
    14  C    0.354658
    17  C   -0.303368
    18  C   -0.605677
    20  Pd  -0.425620
    21  C    0.046383
    22  C    0.170184
    23  C    0.657235
    24  C   -0.130171
    25  C   -0.308511
    28  C    0.637349
    31  C   -0.321315
    32  C   -0.420522
    34  C    0.259163
    37  C    0.057454
    38  O   -0.299586
    42  C    0.294556
    46  O   -0.120698
    50  C    0.353787
    54  C    0.401255
    58  C    0.364484
    62  C    0.291862
 APT charges:
               1
     1  C    0.148276
     2  C   -0.173537
     3  C    0.198644
     4  C   -0.170623
     5  H    0.089138
     6  C    0.527129
     7  N   -0.458120
     8  H    0.072802
     9  H    0.101261
    10  Cl  -0.290243
    11  C    0.868983
    12  O   -0.739583
    13  N   -0.684158
    14  C    0.309303
    15  H    0.030708
    16  H    0.011856
    17  C    0.189087
    18  C    0.107571
    19  H   -0.008757
    20  Pd   0.152005
    21  C   -0.046174
    22  C    0.093626
    23  C   -0.069925
    24  C    0.388549
    25  C   -0.466706
    26  H   -0.021350
    27  H    0.003303
    28  C   -0.079435
    29  H    0.033252
    30  H    0.028143
    31  C    0.375624
    32  C    0.124175
    33  H    0.010822
    34  C    0.341587
    35  H   -0.062070
    36  H    0.001744
    37  C    1.024573
    38  O   -0.817837
    39  H    0.018683
    40  H   -0.017542
    41  H    0.044130
    42  C   -0.033551
    43  H    0.018095
    44  H    0.028265
    45  H    0.033948
    46  O   -0.626463
    47  H    0.303019
    48  H    0.000066
    49  H    0.043197
    50  C   -0.013743
    51  H    0.034435
    52  H    0.005931
    53  H    0.023141
    54  C   -0.010967
    55  H    0.008190
    56  H   -0.003297
    57  H   -0.000309
    58  C    0.002957
    59  H    0.007478
    60  H   -0.000538
    61  H    0.005143
    62  C    0.011299
    63  H   -0.008317
    64  H   -0.022869
    65  H    0.005978
 Sum of APT charges =   1.00000
 APT charges with hydrogens summed into heavy atoms:
               1
     1  C    0.148276
     2  C   -0.072276
     3  C    0.271447
     4  C   -0.081485
     6  C    0.527129
     7  N   -0.458120
    10  Cl  -0.290243
    11  C    0.868983
    12  O   -0.739583
    13  N   -0.684158
    14  C    0.351868
    17  C    0.180330
    18  C    0.107571
    20  Pd   0.152005
    21  C   -0.016668
    22  C    0.054733
    23  C   -0.022493
    24  C    0.388549
    25  C   -0.466706
    28  C   -0.017975
    31  C    0.375624
    32  C    0.167372
    34  C    0.281261
    37  C    1.024573
    38  O   -0.817837
    42  C    0.046758
    46  O   -0.323444
    50  C    0.049763
    54  C   -0.006384
    58  C    0.015039
    62  C   -0.013910
 Electronic spatial extent (au):  <R**2>=          12743.1446
 Charge=              1.0000 electrons
 Dipole moment (field-independent basis, Debye):
    X=              6.0876    Y=             -0.6808    Z=              0.2703  Tot=              6.1315
 Quadrupole moment (field-independent basis, Debye-Ang):
   XX=           -162.2677   YY=           -151.2183   ZZ=           -191.4225
   XY=              6.4045   XZ=            -13.9550   YZ=             -6.7034
 Traceless Quadrupole moment (field-independent basis, Debye-Ang):
   XX=              6.0351   YY=             17.0845   ZZ=            -23.1196
   XY=              6.4045   XZ=            -13.9550   YZ=             -6.7034
 Octapole moment (field-independent basis, Debye-Ang**2):
  XXX=            222.6451  YYY=            -53.3095  ZZZ=             35.7320  XYY=             38.9776
  XXY=             24.6787  XXZ=             38.8188  XZZ=             29.0103  YZZ=            -39.6149
  YYZ=              2.0465  XYZ=            -40.1333
 Hexadecapole moment (field-independent basis, Debye-Ang**3):
 XXXX=          -7567.4255 YYYY=          -5860.8201 ZZZZ=          -2019.9159 XXXY=            417.0443
 XXXZ=           -310.3023 YYYX=           -122.6919 YYYZ=           -184.3751 ZZZX=             40.8312
 ZZZY=           -123.7950 XXYY=          -2031.1094 XXZZ=          -1750.3899 YYZZ=          -1214.5185
 XXYZ=           -127.8070 YYXZ=            -12.0980 ZZXY=            -61.8687
 N-N= 3.997717205498D+03 E-N=-1.228257257984D+04  KE= 1.766386594347D+03
  Exact polarizability: 417.771 -10.953 346.133   3.602 -24.414 268.179
 Approx polarizability: 601.215 -32.907 511.549  31.649 -64.278 434.753
   1 Symmetry operations used in ECPInt.
 ECPInt:  NShTT=   25878 NPrTT=  135610 LenC2=   23205 LenP2D=   72413.
 LDataN:  DoStor=T MaxTD1= 7 Len=  274
 Calling FoFJK, ICntrl=    100127 FMM=F ISym2X=0 I1Cent= 0 IOpClX= 0 NMat=1 NMatS=1 NMatT=0.
 Defaulting to unpruned grid for atomic number  46.
 Defaulting to unpruned grid for atomic number  46.
 Defaulting to unpruned grid for atomic number  46.
 Defaulting to unpruned grid for atomic number  46.
 Defaulting to unpruned grid for atomic number  46.
 Defaulting to unpruned grid for atomic number  46.
 Defaulting to unpruned grid for atomic number  46.
 Defaulting to unpruned grid for atomic number  46.
 Defaulting to unpruned grid for atomic number  46.
 Defaulting to unpruned grid for atomic number  46.
 Defaulting to unpruned grid for atomic number  46.
 Defaulting to unpruned grid for atomic number  46.
 Defaulting to unpruned grid for atomic number  46.
 Defaulting to unpruned grid for atomic number  46.
 Defaulting to unpruned grid for atomic number  46.
 Defaulting to unpruned grid for atomic number  46.
 Defaulting to unpruned grid for atomic number  46.
 Defaulting to unpruned grid for atomic number  46.
 Defaulting to unpruned grid for atomic number  46.
 Defaulting to unpruned grid for atomic number  46.
 Defaulting to unpruned grid for atomic number  46.
 Defaulting to unpruned grid for atomic number  46.
 Defaulting to unpruned grid for atomic number  46.
 Defaulting to unpruned grid for atomic number  46.
 Defaulting to unpruned grid for atomic number  46.
 Defaulting to unpruned grid for atomic number  46.
 Defaulting to unpruned grid for atomic number  46.
 Defaulting to unpruned grid for atomic number  46.
 Full mass-weighted force constant matrix:
 Low frequencies --- -249.8780   -8.4088   -2.7849   -0.0014    0.0009    0.0015
 Low frequencies ---   13.2404   22.8114   41.7649
 ******    1 imaginary frequencies (negative Signs) ****** 
 Diagonal vibrational polarizability:
       67.1677597     128.4273695      67.9410561
 Harmonic frequencies (cm**-1), IR intensities (KM/Mole), Raman scattering
 activities (A**4/AMU), depolarization ratios for plane and unpolarized
 incident light, reduced masses (AMU), force constants (mDyne/A),
 and normal coordinates:
                           1         2         3         4         5
                           A         A         A         A         A
       Frequencies ---  -249.8690   21.4446   41.6075   47.5902   55.0785
    Reduced masses ---     8.2563    5.3922    5.4456    4.7527    5.1366
   Force constants ---     0.3037    0.0015    0.0056    0.0063    0.0092
    IR Intensities ---     2.8294    0.6230    1.3319    0.2192    3.2776
 Coord Atom Element:
   1     1     6          0.01105   0.04467   0.00901  -0.03832   0.00325
   2     1     6         -0.00562   0.02273   0.04593  -0.02272  -0.01731
   3     1     6         -0.00227   0.03264   0.07204  -0.01384   0.03828
   1     2     6          0.00543   0.06919  -0.00280  -0.04032  -0.00873
   2     2     6         -0.00023   0.03471   0.13129  -0.01099  -0.03758
   3     2     6         -0.00129   0.08946   0.19102   0.00381  -0.01398
   1     3     6          0.00606   0.06344   0.00025  -0.03959  -0.00621
   2     3     6          0.00250   0.02485   0.16832   0.02325  -0.06372
   3     3     6         -0.00019   0.12990   0.21669   0.06033  -0.08904
   1     4     6          0.00927   0.03217   0.01154  -0.03897   0.01247
   2     4     6          0.00346   0.00042   0.10263   0.04393  -0.06674
   3     4     6         -0.00058   0.11103   0.10939   0.09192  -0.10454
   1     5     1          0.00992   0.02474   0.01235  -0.04061   0.01856
   2     5     1          0.00649  -0.01256   0.11238   0.07208  -0.08533
   3     5     1         -0.00109   0.14015   0.11514   0.13327  -0.16146
   1     6     6          0.01001   0.00958   0.02346  -0.03739   0.02481
   2     6     6          0.00239  -0.00980   0.01473   0.02483  -0.04185
   3     6     6         -0.00091   0.05212  -0.01267   0.06374  -0.04203
   1     7     7          0.01274   0.01533   0.02146  -0.03330   0.01764
   2     7     7         -0.00220   0.00171  -0.00509  -0.00538  -0.01962
   3     7     7         -0.00215   0.01453  -0.02112   0.01304   0.02542
   1     8     1          0.00458   0.08119  -0.00879  -0.03993  -0.01635
   2     8     1          0.00441   0.03375   0.23681   0.03482  -0.08147
   3     8     1          0.00040   0.17384   0.31109   0.07818  -0.13431
   1     9     1          0.00398   0.09174  -0.01557  -0.04192  -0.01990
   2     9     1         -0.00056   0.05163   0.16759  -0.02694  -0.03580
   3     9     1         -0.00070   0.10094   0.26159  -0.02206  -0.00228
   1    10    17          0.00644  -0.02556   0.05227  -0.05353   0.05762
   2    10    17          0.00218  -0.04358  -0.08400   0.04228  -0.04226
   3    10    17          0.00259   0.02757  -0.16027   0.09493  -0.06040
   1    11     6          0.01159   0.04640   0.00229  -0.04360   0.00415
   2    11     6         -0.01430   0.03140   0.00503  -0.05245  -0.00465
   3    11     6         -0.00007  -0.01514   0.03912  -0.03676   0.06789
   1    12     8          0.00660   0.08018  -0.01282  -0.07541   0.00833
   2    12     8         -0.01287   0.04811  -0.00799  -0.09538  -0.02324
   3    12     8          0.01315  -0.01085   0.02665  -0.08642   0.03287
   1    13     7          0.01453   0.01596   0.00581  -0.01935   0.00038
   2    13     7         -0.02593   0.02632  -0.01595  -0.03952   0.01069
   3    13     7         -0.00172  -0.06163   0.02130   0.01022   0.08085
   1    14     6          0.00549   0.07629  -0.01469  -0.07505   0.00768
   2    14     6         -0.01834   0.05278  -0.06423  -0.12275  -0.02936
   3    14     6          0.00699  -0.07437  -0.02527  -0.05816  -0.00130
   1    15     1          0.00232   0.06867  -0.06757  -0.09515  -0.00379
   2    15     1         -0.02010   0.05112  -0.07032  -0.11538  -0.02960
   3    15     1          0.00903  -0.07759  -0.07608  -0.11867  -0.01630
   1    16     1          0.01185   0.11976   0.03490  -0.08524   0.03182
   2    16     1         -0.01852   0.06616  -0.12082  -0.20009  -0.03689
   3    16     1          0.00506  -0.09532  -0.02883  -0.03191  -0.00861
   1    17     6          0.00497   0.02500  -0.00565  -0.02756  -0.01655
   2    17     6         -0.01775   0.04068  -0.03559  -0.05806  -0.02205
   3    17     6          0.00533  -0.09976   0.00123   0.01442   0.00051
   1    18     6          0.00709  -0.02214  -0.01290   0.02618  -0.13878
   2    18     6         -0.00599   0.02043   0.00600   0.02131  -0.01571
   3    18     6          0.00158  -0.10734  -0.01692  -0.00064  -0.04447
   1    19     1          0.00436   0.02869   0.00359  -0.03710   0.02830
   2    19     1         -0.01394   0.05321  -0.05402  -0.07944  -0.05083
   3    19     1          0.00714  -0.13393   0.02021   0.08750  -0.03521
   1    20    46         -0.06792  -0.00189   0.00864   0.01764   0.01808
   2    20    46         -0.03828   0.01661  -0.02013  -0.02972  -0.00752
   3    20    46         -0.02356  -0.02442  -0.02657  -0.01360   0.03719
   1    21     6         -0.03362   0.00521  -0.00371   0.03100   0.01400
   2    21     6         -0.00649  -0.10055   0.07199   0.14337   0.06316
   3    21     6         -0.00771   0.14193   0.01007   0.08310  -0.00306
   1    22     6          0.01374   0.06917  -0.02226  -0.00403  -0.00622
   2    22     6          0.03701  -0.07040   0.08042   0.08818   0.03209
   3    22     6         -0.00724   0.10734   0.04428   0.04732  -0.02146
   1    23     6         -0.04008   0.05961  -0.00877   0.04426   0.00437
   2    23     6          0.12791  -0.02565   0.06190   0.00479  -0.00124
   3    23     6          0.07663   0.06021   0.01921  -0.00588   0.00305
   1    24     6         -0.13949  -0.00151  -0.00523   0.01934   0.01584
   2    24     6          0.46973  -0.00377   0.01321  -0.01661   0.01839
   3    24     6          0.17267   0.03567   0.00537  -0.02419   0.01616
   1    25     6         -0.07615  -0.05664   0.00255   0.00968   0.03093
   2    25     6          0.10543  -0.01098  -0.01379   0.00404   0.04149
   3    25     6          0.01427   0.07037  -0.01222  -0.00756   0.01763
   1    26     1          0.01085   0.11568  -0.02690   0.01271  -0.01864
   2    26     1         -0.02312  -0.09121   0.12307   0.11509   0.01737
   3    26     1         -0.02961   0.12385   0.05690   0.06529  -0.03304
   1    27     1         -0.10313   0.05400   0.01273   0.12372   0.02311
   2    27     1         -0.00474  -0.03339   0.08224   0.00903  -0.01641
   3    27     1          0.24910   0.06988  -0.00533   0.00614   0.02708
   1    28     6          0.15905  -0.01582  -0.05075   0.03450   0.01918
   2    28     6         -0.01954   0.04615  -0.09176   0.01009   0.00577
   3    28     6         -0.00623  -0.04921  -0.04228  -0.02839  -0.01534
   1    29     1          0.13789  -0.01436  -0.03442   0.02391   0.02548
   2    29     1          0.04960   0.04326  -0.07728   0.01150  -0.00743
   3    29     1         -0.02128  -0.04922  -0.09016  -0.00403  -0.01999
   1    30     1          0.08834  -0.02739  -0.07399   0.04121   0.01604
   2    30     1         -0.01727   0.06212  -0.12688   0.02537   0.01959
   3    30     1          0.01796  -0.03297  -0.06303  -0.01815  -0.00328
   1    31     6          0.16540  -0.00746  -0.01874   0.02169   0.02741
   2    31     6         -0.15449   0.01625  -0.03969  -0.02085  -0.00291
   3    31     6         -0.02087  -0.04207  -0.00534  -0.04435  -0.00748
   1    32     6          0.33138  -0.01005  -0.03177   0.02131   0.02647
   2    32     6         -0.21260   0.02035  -0.04065  -0.00551   0.00492
   3    32     6         -0.04530  -0.03788   0.04617  -0.05986  -0.00210
   1    33     1         -0.05751  -0.02222   0.02076   0.12442  -0.01151
   2    33     1         -0.00578  -0.12623   0.10813   0.17211   0.03406
   3    33     1         -0.01919   0.15846  -0.02057   0.09185   0.01837
   1    34     6          0.09444   0.00748   0.00748   0.01305   0.03223
   2    34     6         -0.01323  -0.01746   0.00245  -0.06230  -0.01334
   3    34     6          0.05760  -0.05992   0.00233  -0.05839  -0.01368
   1    35     1          0.14340   0.05752  -0.05447   0.02425   0.02833
   2    35     1         -0.00343   0.02438  -0.04353  -0.04839  -0.01382
   3    35     1          0.15160  -0.09613   0.02411  -0.08393  -0.02195
   1    36     1          0.02376  -0.03610   0.06780   0.00129   0.03648
   2    36     1          0.03878  -0.00303  -0.01391  -0.07100  -0.01873
   3    36     1          0.07583  -0.01961  -0.06232  -0.02766  -0.01133
   1    37     6         -0.07221  -0.05508   0.00399   0.02426   0.04156
   2    37     6         -0.01276  -0.05164   0.00805   0.08477   0.11047
   3    37     6         -0.03693   0.13424  -0.02297   0.04545   0.04121
   1    38     8         -0.07944  -0.10498   0.01164   0.03569   0.07483
   2    38     8         -0.01316  -0.05331  -0.02343   0.12016   0.21150
   3    38     8         -0.02870   0.17292  -0.05769   0.06776   0.10551
   1    39     1         -0.02052   0.01870  -0.01687  -0.01911   0.02502
   2    39     1         -0.05490  -0.14188   0.07897   0.20806   0.07548
   3    39     1          0.01591   0.15517   0.03480   0.13333  -0.04548
   1    40     1          0.09984   0.07809  -0.04251  -0.08326  -0.01652
   2    40     1          0.06739  -0.06377   0.05574   0.08183   0.04510
   3    40     1         -0.03006   0.09963   0.07550   0.03906  -0.04223
   1    41     1          0.04578   0.10095  -0.01966   0.02822  -0.01148
   2    41     1          0.10121  -0.00932   0.06606  -0.03752  -0.02998
   3    41     1         -0.05120   0.03135   0.03753  -0.03866  -0.01315
   1    42     6          0.07382  -0.02219  -0.08426   0.03215   0.01434
   2    42     6          0.01859   0.05161  -0.10112   0.02702   0.02542
   3    42     6         -0.02077  -0.04406   0.07527  -0.07197  -0.00506
   1    43     1         -0.08182  -0.01914  -0.09873   0.01663   0.00254
   2    43     1         -0.04212   0.05743  -0.11295   0.02127   0.02177
   3    43     1         -0.13946  -0.06948   0.10345  -0.08168  -0.01760
   1    44     1          0.04432  -0.02329  -0.09129   0.03247   0.01251
   2    44     1          0.17958   0.04807  -0.09776   0.04974   0.03960
   3    44     1          0.07823  -0.03484   0.11853  -0.08899  -0.00201
   1    45     1          0.11507  -0.03346  -0.10574   0.05691   0.02004
   2    45     1          0.01313   0.06991  -0.14034   0.03347   0.02942
   3    45     1         -0.00413  -0.03366   0.02936  -0.05326   0.00152
   1    46     8          0.02959   0.01807   0.02405   0.00796   0.03310
   2    46     8         -0.00573  -0.11577   0.10985  -0.10369  -0.01423
   3    46     8         -0.01492  -0.08159   0.06223  -0.07983  -0.01311
   1    47     1         -0.02165   0.03342   0.03592   0.00348   0.03362
   2    47     1          0.03147  -0.13169   0.13311  -0.12936  -0.01307
   3    47     1          0.02226  -0.09491   0.06781  -0.08952  -0.01281
   1    48     1          0.22367  -0.01268  -0.07128   0.05171   0.00755
   2    48     1          0.00587   0.05604  -0.11123   0.02062   0.01057
   3    48     1         -0.03513  -0.07106  -0.00586  -0.04564  -0.03122
   1    49     1          0.01955   0.00252  -0.02298   0.01546   0.02315
   2    49     1          0.18681  -0.00565   0.00823  -0.02465   0.00653
   3    49     1          0.02851  -0.04925   0.09090  -0.07871  -0.00389
   1    50     6         -0.01652  -0.12741   0.01371  -0.00700   0.04358
   2    50     6          0.08006  -0.00141  -0.06692  -0.00521   0.04084
   3    50     6          0.02541   0.04378  -0.02840  -0.01840   0.02184
   1    51     1         -0.03088  -0.16360  -0.00281   0.01556   0.05276
   2    51     1          0.06353  -0.01117  -0.07936   0.00218   0.04216
   3    51     1         -0.06883   0.04879  -0.08695  -0.00634   0.01891
   1    52     1         -0.01151  -0.12784   0.01539  -0.00997   0.04310
   2    52     1          0.08120   0.02847  -0.05100  -0.03226   0.02976
   3    52     1          0.11045  -0.00451  -0.00761  -0.04698   0.02731
[...]
 1909,0.00005892,0.00010278,-0.00005610,-0.00012354,0.00010525,-0.00009
 919,0.00023137,-0.00020986,-0.00004943,0.00021014,-0.00000205,-0.00003
 816,0.00010825,-0.00002164,-0.00002593,0.00002083,0.00014796,0.0001551
 4,-0.00039867,0.00001027,-0.00003586,-0.00000496,0.00000613,0.00000462
 ,-0.00000261,-0.00000199,0.,0.00000783,-0.00007150,0.00010190,-0.00001
 735,0.00002650,0.00000754,0.00000269,0.00010429,0.00000610,-0.00008654
 ,0.00002912,-0.00000178,-0.00003973,0.00000216,-0.00001148,0.00000999,
 -0.00000139,-0.00000065,0.00000397,0.00017783,0.00002147,0.00015831,-0
 .00007770,0.00005324,-0.00008142,0.00000436,-0.00003853,-0.00003715,-0
 .00006694,-0.00003994,-0.00001333,-0.00000769,-0.00014384,-0.00011825,
 0.00000945,-0.00002077,-0.00000077,0.00000518,-0.00000571,-0.00000893,
 0.00000039,0.00000824,0.00000372,-0.00000235,0.00000537,-0.00000122,0.
 00000674,-0.00002411,0.00006680,0.00001772,-0.00000663,-0.00003548,0.0
 0001062,-0.00000534,-0.00000562,-0.00000638,0.00001719,-0.00001809,-0.
 00001327,-0.00001524,-0.00004017,0.00000035,0.00000642,-0.00001914,0.0
 0000877,-0.00000232,0.00000181,0.00000406,0.00000792,-0.00001782,0.000
 15782,0.00124347,0.00069884,-0.00011797,-0.00037021,-0.00003099,-0.000
 03303,-0.00003398,-0.00014469,0.00024790,0.00027005,-0.00008639,-0.000
 98820,0.00100491,0.00047587,0.00010669,-0.00003820,-0.00010582,0.00018
 586,-0.00015268,-0.00006274,-0.00019736,0.00011283,-0.00019570,0.02982
 938,-0.08236636,-0.08871222,-0.03166447,0.08893912,-0.00008551,0.00001
 138,0.00000801,0.00009715,-0.00000017,-0.00000710,-0.00005345,0.000017
 90,-0.00000975,0.00001394,-0.00005933,0.00003753,-0.00000053,-0.000001
 74,0.00000136,0.00002017,0.00008342,-0.00006842,0.00004640,-0.00002767
 ,-0.00000014,0.00000517,-0.00000102,-0.00000153,-0.00002014,-0.0000145
 3,0.00000327,0.00001777,-0.00004515,0.00003308,-0.00016134,-0.00001730
 ,0.00004595,0.00055949,0.00017353,-0.00018251,-0.00013049,-0.00006459,
 0.00036225,0.00007431,-0.00115954,-0.00070098,-0.00001110,0.00005947,0
 .00007853,0.00008735,0.00027537,-0.00026426,-0.00012903,0.00471510,-0.
 00173134,0.00603829,-0.00872763,-0.01989148,-0.00009890,0.00007733,0.0
 0041820,-0.00001072,0.00013750,-0.00005420,-0.00004626,0.00000394,0.00
 002410,0.00001583,-0.00000813,-0.00000512,0.00002575,0.00013754,0.0000
 9956,0.00000006,0.00005579,0.00001279,-0.00002681,-0.00000669,-0.00002
 499,-0.00001215,-0.00001775,0.00001045,-0.00004235,-0.00012553,-0.0001
 0658,0.00000231,-0.00001657,0.00000073,0.00000141,0.00000585,-0.000000
 99,0.00000078,0.00000424,0.00000297,-0.00003462,0.00003468,-0.00000141
 ,0.00001200,-0.00000568,0.00002540,0.00004397,-0.00000031,-0.00003590,
 0.00003595,-0.00000100,-0.00003875,-0.00000073,-0.00000852,0.00001059,
 -0.00000208,0.00000019,0.00000081,0.00008660,0.00008986,-0.00001518,-0
 .00005108,-0.00006275,0.00001601,0.00000197,-0.00001957,-0.00000997,-0
 .00000580,0.00000022,0.00000272,-0.00000246,-0.00004160,-0.00003337,0.
 00000543,-0.00001144,-0.00000056,0.00000433,-0.00000250,-0.00000095,-0
 .00000210,0.00000662,-0.00000103,-0.00000497,0.00000377,0.00000256,-0.
 00002150,-0.00001501,0.00004849,0.00000750,-0.00000037,-0.00001551,0.0
 0000402,-0.00000319,-0.00000441,0.00000021,-0.00000201,-0.00001065,-0.
 00001442,0.00001696,0.00001100,0.00001105,-0.00000126,0.00003857,-0.00
 000251,0.00000537,0.00000357,-0.00000023,-0.00001915,0.00000088,-0.000
 67153,-0.00142335,0.00074146,0.00029531,0.00059184,0.00056202,0.000035
 67,0.00010445,-0.00006018,-0.00026930,0.00005526,0.00032701,0.00075493
 ,-0.00133966,0.00065040,-0.00001052,0.00007336,-0.00007856,-0.00065668
 ,0.00072847,0.00004534,-0.00005335,0.00008419,0.00045065,0.06931463,-0
 .08709404,-0.25316952,-0.07618192,0.09242232,0.27450304,0.00008656,-0.
 00001624,-0.00002086,-0.00002538,0.00001217,-0.00000810,0.00003037,-0.
 00000505,0.00000801,0.00001522,0.00003308,-0.00003139,0.00000301,-0.00
 000184,-0.00000849,-0.00004089,-0.00003299,0.00001271,0.00004989,0.000
 10242,0.00006899,0.00000014,-0.00000123,-0.00000300,0.00000870,-0.0000
 0112,-0.00001590,-0.00000172,0.00003598,-0.00000460,-0.00008909,-0.000
 01965,-0.00007630,0.00010338,0.00008040,-0.00008122,-0.00023757,0.0002
 8346,0.00059398,0.00012570,0.00004715,0.00019190,0.00001051,0.00008208
 ,-0.00009832,-0.00002225,-0.00003522,0.00006643,0.00012725,-0.00019434
 ,-0.00109210,-0.00377548,-0.00201077,-0.00111969,0.00019020,0.00003854
 ,0.00032988,-0.00003059,-0.00022427,-0.00002081,-0.00012227,-0.0001262
 6,0.00002198,0.00022834,-0.00010043,-0.00015382,0.00060518,0.00024991,
 0.00062604,-0.00069585,-0.00048323,0.00044571,0.00017939,-0.00007438,0
 .00013176,-0.00000305,0.00002527,0.00004161,0.00004192,0.00123151,-0.0
 0055967,0.00002264,-0.00001030,-0.00000263,0.00001644,-0.00000081,-0.0
 0000748,-0.00000375,-0.00000556,0.00000057,-0.00016565,0.00008440,-0.0
 0006112,0.00001952,-0.00009882,-0.00001389,-0.00056885,-0.00069532,-0.
 00050160,-0.00005711,-0.00003140,0.00003049,0.00001838,-0.00000772,-0.
 00000697,0.00001316,-0.00000283,0.00000999,0.00042417,-0.00000122,0.00
 034321,-0.00017979,0.00024978,-0.00013593,-0.00003966,-0.00003842,-0.0
 0005563,-0.00017601,-0.00009446,-0.00007668,-0.00007072,-0.00033778,-0
 .00028423,0.00002811,-0.00003072,-0.00002230,0.00001532,-0.00001306,-0
 .00001238,0.00001387,0.00001445,0.00001703,-0.00000430,0.00000999,-0.0
 0001285,0.00013310,0.00000186,0.00000290,-0.00000573,-0.00001156,-0.00
 002454,0.00000721,-0.00000205,-0.00000273,-0.00001827,0.00006951,-0.00
 002169,-0.00006954,-0.00000953,-0.00010851,0.00000366,0.00003194,-0.00
 004858,0.00003220,-0.00001245,-0.00000935,0.00002471,0.00001137,-0.000
 04166,0.00071056,-0.00047114,0.00150136,0.00001005,0.00009279,-0.00016
 388,0.00031621,0.00023602,-0.00001648,0.00011783,-0.00046266,-0.000209
 80,0.00049872,0.00127655,-0.00010460,0.00040441,0.00010358,-0.00025237
 ,-0.00002213,0.00002745,0.00016873,0.00010083,-0.00002855,0.00025061,-
 0.17072698,-0.11780908,-0.05536542,0.00687955,0.00728506,0.00289559,0.
 18159341,0.00003141,-0.00003354,-0.00002996,-0.00001184,0.00000690,0.0
 0000834,0.00002368,-0.00000185,0.00000654,0.00000660,0.00002630,-0.000
 01514,0.00000112,-0.00000113,-0.00000352,-0.00002021,-0.00003930,0.000
 03026,0.00000236,0.00002962,-0.00000007,0.00000113,-0.00000192,-0.0000
 0302,0.00000751,-0.00000270,-0.00001530,-0.00000694,0.00002621,-0.0000
 1721,-0.00002905,-0.00017861,0.00003518,0.00018358,0.00020679,-0.00009
 072,-0.00015812,-0.00000309,0.00016273,0.00026795,0.00000695,0.0000949
 7,-0.00005750,0.00004481,-0.00012285,-0.00003614,0.00000266,0.00005562
 ,0.00041450,0.00073494,-0.00162818,-0.01626263,-0.01684046,-0.00885802
 ,0.00013160,0.00031369,0.00031127,0.00005757,-0.00002137,0.00004132,-0
 .00035835,0.00002921,0.00002174,-0.00004472,-0.00011154,-0.00001978,0.
 00065141,-0.00092982,0.00002244,-0.00011824,-0.00011630,0.00020169,0.0
 0012007,0.00018218,0.00017839,-0.00001298,-0.00000702,0.00003709,0.001
 11257,-0.00242272,-0.00048432,0.00000314,0.00000725,0.00000035,0.00000
 354,-0.00000103,-0.00000156,0.00000063,-0.00000113,-0.00000307,-0.0000
 5721,0.00003549,0.00000185,0.00002693,-0.00007140,0.00004709,-0.000685
 78,-0.00050191,-0.00061059,-0.00001148,-0.00000941,0.00000375,0.000002
 96,-0.00000124,0.00000003,0.00000011,-0.00000084,0.00000375,-0.0003073
 6,0.00028595,0.00012776,0.00014315,-0.00011074,0.00000468,0.00002462,-
 0.00006101,-0.00002021,0.00000777,-0.00002968,0.00003443,-0.00000946,-
 0.00016797,-0.00009876,-0.00000635,0.00000912,0.00000359,-0.00000286,0
 .00000142,0.00000369,-0.00000122,-0.00000077,0.00000124,-0.00000043,0.
 00000039,-0.00000349,0.00001734,0.00000808,-0.00000766,-0.00000179,-0.
 00000018,0.00000042,-0.00000005,0.00000096,0.00000015,0.00001763,-0.00
 000152,-0.00003169,0.00002196,-0.00002682,-0.00002838,-0.00002195,-0.0
 0000665,0.00000240,0.00001092,-0.00000620,-0.00000522,-0.00000645,0.00
 000741,0.00000206,0.00056857,-0.00360414,0.00489074,0.00029194,0.00039
 419,0.00015972,-0.00006515,0.00026519,-0.00000884,-0.00138978,-0.00110
 665,-0.00034517,-0.00143987,0.00104305,-0.00111731,0.00077232,-0.00027
 474,0.00068021,-0.00000617,-0.00017107,-0.00006643,0.00020107,0.000394
 23,0.00004966,-0.11732096,-0.15601044,-0.05145439,-0.00796642,-0.00729
 074,-0.00219359,0.13056628,0.17537015,0.00004614,0.00001024,0.00001789
 ,-0.00003641,-0.00000294,-0.00000603,0.00001933,-0.00000440,0.00000130
 ,-0.00000398,0.00001872,-0.00001437,0.00000110,-0.00000011,-0.00000117
 ,0.00000163,-0.00003112,0.00001877,-0.00000775,0.00002466,0.00001318,-
 0.00000209,0.00000034,-0.00000004,0.00000413,0.00000599,0.00000129,-0.
 00000529,0.00001689,-0.00000759,0.00001978,0.00015273,-0.00003506,-0.0
 0015341,-0.00019904,0.00008461,-0.00031007,-0.00020456,0.00009560,-0.0
 0014076,0.00013736,0.00025853,0.00003684,0.00000093,0.00003303,0.00000
 028,-0.00004024,0.00003546,0.00096153,0.00072087,0.00101885,0.01484261
 ,0.01375300,0.00576181,0.00026183,-0.00046704,-0.00075152,0.00000856,-
 0.00009667,-0.00003579,-0.00016406,-0.00000472,0.00001201,0.00000819,-
 0.00007381,0.00000844,0.00028992,0.00004247,0.00022446,-0.00014299,-0.
 00017705,0.00028299,-0.00003296,0.00024526,0.00002344,0.00003114,0.000
 08977,-0.00001737,-0.00000633,-0.00054278,0.00034460,0.00000170,0.0000
 1947,0.00000253,0.00000201,-0.00000366,-0.00000192,-0.00000008,-0.0000
 0329,-0.00000481,0.00000592,-0.00005779,-0.00002103,0.00009582,-0.0000
 6105,-0.00001073,-0.00051520,-0.00049014,-0.00011594,-0.00004892,-0.00
 001525,0.00004724,0.00000699,0.00000667,-0.00001275,0.00000873,0.00000
 051,-0.00000142,-0.00001405,-0.00031123,0.00001910,-0.00004994,0.00029
 738,-0.00003585,0.00001071,0.00000107,-0.00003771,-0.00003445,-0.00002
 383,-0.00003886,-0.00001804,-0.00007283,-0.00009057,-0.00000692,0.0000
 3637,-0.00001194,-0.00000444,-0.00000015,0.00000770,0.00000212,-0.0000
 0568,0.00000446,0.00000429,-0.00000242,-0.00000535,0.00006376,0.000021
 20,-0.00004507,-0.00001553,-0.00000822,0.00000670,-0.00000534,0.000001
 87,0.00000294,-0.00001574,0.00004598,0.00000739,-0.00000459,0.00004509
 ,-0.00001554,-0.00000063,0.00000437,-0.00001737,0.00000209,-0.00000082
 ,-0.00000194,0.00000016,0.00000200,0.00000761,0.00006145,0.00275817,-0
 .00271455,-0.00013221,0.00029436,0.00021462,-0.00002634,-0.00011432,-0
 .00020572,0.00068966,0.00104354,0.00063322,0.00084823,-0.00026121,0.00
 069607,-0.00040401,0.00015021,-0.00001634,-0.00017799,-0.00009968,-0.0
 0006432,0.00023210,-0.00023870,-0.00000057,-0.05582622,-0.05193321,-0.
 06974270,-0.02016247,-0.01715552,-0.00719710,0.06099982,0.05480546,0.0
 7315331,-0.00002353,0.00001289,0.00007081,0.00001253,-0.00000404,-0.00
 001034,-0.00001752,0.00000504,-0.00000514,0.00000336,-0.00002181,0.000
 02342,0.00000106,0.00000178,0.00000184,-0.00001454,0.00005517,-0.00003
 488,0.00002588,-0.00000975,-0.00008783,-0.00000025,-0.00000042,0.00000
 144,-0.00000627,0.00000017,0.00000639,0.00000956,-0.00003486,0.0000182
 0,0.00045192,0.00015990,0.00000398,0.00016828,-0.00048472,0.00011482,-
 0.00120643,-0.00038534,0.00276800,-0.00024002,-0.00002698,-0.00020087,
 -0.00001073,-0.00005708,0.00004266,0.00002903,0.00004451,-0.00006601,-
 0.00049212,0.00085342,-0.00013720,0.00215718,-0.00238327,-0.00009907,-
 0.00008657,0.00012236,-0.00006219,-0.00025267,0.00026650,0.00001513,-0
 .00006353,0.00014003,0.00003959,-0.00013077,0.00007844,0.00010259,0.00
 003237,0.00004782,0.00005623,0.00032036,0.00016626,-0.00020996,0.00015
 312,0.00005218,0.00002269,-0.00000601,-0.00000414,-0.00000431,-0.00061
 095,-0.00064921,-0.00012842,0.00000334,0.00001151,0.00000407,-0.000004
 55,0.00000156,-0.00000161,0.00000390,0.00000048,-0.00000330,0.00001776
 ,-0.00001827,-0.00004238,-0.00005646,-0.00000805,0.00007323,0.00008172
 ,0.00001268,-0.00005653,0.00006912,0.00003691,-0.00005929,-0.00001647,
 0.00000643,0.00000961,-0.00001937,0.00002301,0.00001129,-0.00047223,0.
 00015229,0.00002284,0.00021624,-0.00019663,0.00009103,0.00003525,-0.00
 004140,-0.00000580,0.00011719,0.00002240,0.00005566,0.00001508,-0.0000
 3728,-0.00001185,-0.00000816,-0.00000113,0.00000015,-0.00000249,0.0000
 0666,0.00000455,-0.00000160,-0.00000176,-0.00000188,-0.00000261,-0.000
 00207,0.00000452,-0.00008626,0.00003174,0.00008353,0.00001877,-0.00003
 637,-0.00001231,-0.00000609,0.00000373,0.00000072,0.00001214,-0.000036
 07,-0.00001620,0.00004415,-0.00003164,0.00004564,-0.00001596,-0.000016
 99,0.00003808,-0.00000103,0.00000314,-0.00000501,-0.00001148,-0.000005
 58,0.00001888,0.00074063,-0.00040872,0.00006345,-0.00005765,0.00004065
 ,-0.00008247,0.00012100,-0.00016982,0.00008423,0.00017237,0.00014218,-
 0.00002561,0.00078231,0.00026978,-0.00029725,0.00019283,-0.00009758,0.
 00023636,0.00008243,-0.00029207,0.00002263,0.00018897,0.00005203,0.000
 12164,-0.24889133,0.10990901,-0.03111583,-0.00652920,0.00240151,-0.001
 70077,-0.01605716,0.01072349,-0.00109940,0.26912216,-0.00004325,-0.000
 03657,-0.00000462,0.00001307,-0.00000889,0.00000587,-0.00001804,0.0000
 0261,0.00001114,-0.00000527,-0.00001431,0.00000645,-0.00000235,0.00000
 147,0.00000502,0.00000004,0.00001826,0.00000305,-0.00003638,-0.0000481
 9,-0.00005262,0.00000097,-0.00000043,0.00000119,-0.00000039,-0.0000027
 6,0.00000418,-0.00000254,-0.00001285,-0.00000082,-0.00030958,-0.000315
 99,0.00026500,-0.00022308,0.00044759,-0.00005880,0.00012629,0.00005630
 ,-0.00117550,0.00023734,-0.00010958,-0.00002957,0.00008153,0.00004585,
 -0.00005683,-0.00000178,-0.00001215,0.00001127,0.00057333,0.00004879,-
 0.00052533,0.02082178,-0.01120075,0.00132271,-0.00003278,0.00008562,0.
 00002263,0.00025435,0.00021645,-0.00007163,-0.00001974,0.00004920,-0.0
 0001973,-0.00008966,0.00006676,0.00006695,-0.00024306,-0.00025041,-0.0
 0010646,0.00018690,0.00002163,-0.00020643,0.00003379,-0.00000136,0.000
 03272,0.00000277,0.00000515,-0.00000396,-0.00076788,-0.00041941,0.0001
 8894,-0.00000327,0.00001147,0.00000758,-0.00000485,0.00000309,0.000001
 46,0.00000236,0.00000393,-0.00000270,0.00002031,0.00000352,0.00008130,
 -0.00002444,-0.00001881,-0.00003373,0.00009266,0.00005310,0.00001385,0
 .00005914,-0.00000383,-0.00003777,-0.00000934,-0.00000246,0.00001006,0
 .00001115,-0.00001911,-0.00001077,-0.00021254,-0.00003647,0.00008298,0
 .00005398,0.00001667,-0.00001495,0.00001794,-0.00003787,-0.00001444,0.
 00006252,0.00001674,0.00002158,0.00005095,-0.00002918,0.00001282,-0.00
 001455,0.00000794,0.00001647,0.00000011,0.00000377,0.00000353,-0.00000
 447,-0.00000278,-0.00000059,0.00000394,-0.00000292,0.00000146,-0.00006
 596,0.00000880,0.00003007,0.00000956,-0.00000461,0.00000879,-0.0000063
 3,0.00000129,0.00000217,0.00000378,-0.00002366,-0.00000030,0.00003024,
 -0.00002317,0.00002060,-0.00000282,-0.00000879,0.00000932,-0.00000895,
 0.00000756,-0.00000501,-0.00000697,-0.00000174,0.00000716,0.00129692,0
 .00113164,-0.00015241,0.00009536,-0.00015589,-0.00004175,-0.00076914,-
 0.00027116,0.00021021,-0.00021612,0.00029010,-0.00009061,-0.00158194,-
 0.00356607,0.00354111,0.00012596,0.00020908,0.00014643,-0.00043183,0.0
 0016228,-0.00001217,0.00151417,-0.00039356,0.00054983,0.10930057,-0.10
 730654,0.01658930,0.00925067,-0.00557654,0.00256245,-0.01878056,0.0107
 3450,-0.00204942,-0.12039461,0.11618769,0.00008115,0.00003553,-0.00000
 772,-0.00008846,0.00000321,0.,0.00005051,-0.00001925,0.00000742,-0.000
 02607,0.00006147,-0.00004148,-0.00000214,-0.00000064,0.00000156,0.0000
 2990,-0.00013986,0.00011630,-0.00008059,0.00000496,0.00004057,-0.00000
 614,0.00000244,0.00000199,0.00000872,0.00001037,0.00000355,-0.00002645
 ,0.00006101,-0.00005075,0.00045424,0.00068048,-0.00047281,0.00023222,-
 0.00073070,0.00023000,0.00099778,-0.00004550,-0.00129357,-0.00019400,0
 .00017599,0.00017729,-0.00006336,-0.00006663,0.00007842,0.00001767,-0.
 00002228,0.00002539,-0.00132048,0.00021826,0.00050165,-0.01939311,0.00
 918279,-0.00329302,0.00002209,0.00010152,-0.00000416,0.00068692,-0.000
 14830,-0.00040572,-0.00001851,0.00001537,0.00000049,-0.00008636,0.0000
 7401,0.00002358,0.00009441,0.00001566,-0.00008778,0.00001101,-0.000213
 52,-0.00032021,0.00021722,0.00005362,-0.00001618,0.00002581,0.00001315
 ,-0.00000387,-0.00050689,0.00002309,0.00105259,-0.00000838,0.00008453,
 0.00001467,-0.00000458,-0.00000975,0.00000241,0.00000241,-0.00000448,-
 0.00001441,0.00002396,-0.00015726,0.00004011,-0.00010897,-0.00005139,-
 0.00000347,0.00004399,0.00001826,-0.00002816,-0.00007801,0.00000622,0.
 00010588,0.00000330,0.00001649,-0.00002903,0.00000649,-0.00000069,-0.0
 0000382,-0.00039152,0.00012493,0.00003276,0.00017362,-0.00012142,0.000
 05768,0.00001347,-0.00001340,-0.00000803,0.00005084,0.00000660,0.00001
 774,0.00000403,0.00005777,0.00005453,-0.00000718,0.00001633,-0.0000027
 7,-0.00000046,0.00000516,0.00000584,0.00000512,-0.00000759,0.00000326,
 0.00000280,-0.00000558,-0.00000611,0.00004495,-0.00000404,-0.00013545,
 -0.00001820,0.00003235,0.00004767,-0.00002218,0.00000955,0.00001267,0.
 00001517,-0.00001139,0.00001401,0.00001360,-0.00001580,0.00001196,-0.0
 0002495,-0.00000886,0.00000776,0.00000750,-0.00000860,-0.00001511,0.00
 000149,0.00000441,0.00000891,-0.00032344,-0.00113867,0.00031635,0.0001
 6381,0.00000029,-0.00003175,0.00024466,0.00015319,0.00034194,0.0000000
 5,-0.00017608,-0.00014490,0.00132360,0.00315591,-0.00288793,0.00033356
 ,-0.00015501,0.00001125,-0.00006248,0.00017266,0.00024905,-0.00119363,
 0.00092246,0.00010816,-0.02936153,0.01615914,-0.05096904,0.02460791,-0
 .01255766,0.00514314,-0.00790174,0.00525388,-0.00176011,0.03130383,-0.
 02109876,0.05316880\\-0.00000189,0.00000530,0.00000602,-0.00000398,0.0
 0000784,0.00000882,-0.00000281,0.00000942,0.00000863,-0.00000166,0.000
 00791,0.00000603,-0.00000152,0.00000879,0.00000587,-0.00000097,0.00000
 498,0.00000334,-0.00000144,0.00000371,0.00000321,-0.00000385,0.0000112
 7,0.00001104,-0.00000418,0.00000831,0.00001120,0.00000043,0.00000304,0
 .00000008,-0.00000311,0.00000249,0.00000626,-0.00000390,0.00000406,0.0
 0000918,-0.00000157,0.00000056,0.00000444,-0.00000426,0.00000108,0.000
 00765,-0.00000558,0.00000121,0.00001086,-0.00000269,0.00000411,0.00000
 772,-0.00000229,-0.00000118,0.00000463,-0.00000436,-0.00000549,0.00000
 670,-0.00000173,-0.00000187,0.00000255,0.00000104,0.00000094,-0.000002
 11,0.00000243,-0.00000537,-0.00000560,0.00000296,-0.00000690,-0.000008
 28,0.00000281,-0.00000558,-0.00000568,0.00000214,-0.00000092,-0.000003
 96,0.00000169,0.00000039,-0.00000453,0.00000332,-0.00000957,-0.0000092
 5,0.00000085,-0.00000744,-0.00000366,0.00000452,0.00000746,-0.00000562
 ,0.00000306,0.00000724,-0.00000473,0.00000331,0.00000915,-0.00000435,0
 .00000323,0.00000298,-0.00000652,0.00000493,0.00000141,-0.00000782,0.0
 0000051,-0.00000830,-0.00000393,0.00000366,0.00000064,-0.00000775,0.00
 000515,0.00000075,-0.00001010,0.00000300,-0.00000088,-0.00000556,0.000
 00104,-0.00000202,-0.00000323,0.00000102,0.,-0.00000199,0.00000281,-0.
 00000620,-0.00000759,0.00000450,-0.00000469,-0.00001035,0.00000249,-0.
 00000589,-0.00000793,0.00000559,0.00000579,-0.00000927,0.00000680,0.00
 000647,-0.00001150,0.00000543,0.00000451,-0.00000984,0.00000470,0.0000
 0797,-0.00000685,0.00000426,-0.00000431,-0.00000903,0.00000407,-0.0000
 0507,-0.00000996,0.00000552,0.00000845,-0.00000845,0.00000464,-0.00000
 061,-0.00000956,0.00000185,0.00000459,-0.00000181,0.00000016,0.0000057
 9,0.00000169,0.00000176,0.00000664,-0.00000175,0.00000282,0.00000650,-
 0.00000348,-0.00000626,-0.00000570,0.00000980,-0.00000677,-0.00000881,
 0.00001072,-0.00000492,-0.00000485,0.00000912,-0.00000667,-0.00000371,
 0.00001220,-0.00000499,-0.00000737,0.00000738,-0.00000369,-0.00000682,
 0.00000561,-0.00000595,-0.00001024,0.00000888,-0.00000599,-0.00000516,
 0.00001029,-0.00000297,-0.00000845,0.00000408,-0.00000363,-0.00001174,
 0.00000434,-0.00000229,-0.00000878,0.00000130,-0.00000258,-0.00000783,
 0.00000243\\\@


 Everything starts as somebody's daydream.
                           -- Larry Niven
 Job cpu time:       3 days  2 hours  9 minutes  0.9 seconds.
 File lengths (MBytes):  RWF=   7473 Int=      0 D2E=      0 Chk=     25 Scr=      1
 Normal termination of Gaussian 09 at Fri Feb  2 17:11:29 2018.
