 Entering Gaussian System, Link 0=g09
 Initial command:
 /sw/group/lms/sw/g09_D01/g09/l1.exe "/work/job.575662/Gau-13446.inp" -scrdir="/work/job.575662/"
 Default is to use a total of  28 processors:
                               28 via shared-memory
                                1 via Linda
 Entering Link 1 = /sw/group/lms/sw/g09_D01/g09/l1.exe PID=     13447.
  
 Copyright (c) 1988,1990,1992,1993,1995,1998,2003,2009,2013,
            Gaussian, Inc.  All Rights Reserved.
  
 This is part of the Gaussian(R) 09 program.  It is based on
 the Gaussian(R) 03 system (copyright 2003, Gaussian, Inc.),
 the Gaussian(R) 98 system (copyright 1998, Gaussian, Inc.),
 the Gaussian(R) 94 system (copyright 1995, Gaussian, Inc.),
 the Gaussian 92(TM) system (copyright 1992, Gaussian, Inc.),
 the Gaussian 90(TM) system (copyright 1990, Gaussian, Inc.),
 the Gaussian 88(TM) system (copyright 1988, Gaussian, Inc.),
 the Gaussian 86(TM) system (copyright 1986, Carnegie Mellon
 University), and the Gaussian 82(TM) system (copyright 1983,
 Carnegie Mellon University). Gaussian is a federally registered
 trademark of Gaussian, Inc.
  
 This software contains proprietary and confidential information,
 including trade secrets, belonging to Gaussian, Inc.
  
 This software is provided under written license and may be
 used, copied, transmitted, or stored only in accord with that
 written license.
  
 The following legend is applicable only to US Government
 contracts under FAR:
  
                    RESTRICTED RIGHTS LEGEND
  
 Use, reproduction and disclosure by the US Government is
 subject to restrictions as set forth in subparagraphs (a)
 and (c) of the Commercial Computer Software - Restricted
 Rights clause in FAR 52.227-19.
  
 Gaussian, Inc.
 340 Quinnipiac St., Bldg. 40, Wallingford CT 06492
  
  
 ---------------------------------------------------------------
 Warning -- This program may not be used in any manner that
 competes with the business of Gaussian, Inc. or will provide
 assistance to any competitor of Gaussian, Inc.  The licensee
 of this program is prohibited from giving any competitor of
 Gaussian, Inc. access to this program.  By using this program,
 the user acknowledges that Gaussian, Inc. is engaged in the
 business of creating and licensing software in the field of
 computational chemistry and represents and warrants to the
 licensee that it is not a competitor of Gaussian, Inc. and that
 it will not use this program in any manner prohibited above.
 ---------------------------------------------------------------
  

 Cite this work as:
 Gaussian 09, Revision D.01,
 M. J. Frisch, G. W. Trucks, H. B. Schlegel, G. E. Scuseria, 
 M. A. Robb, J. R. Cheeseman, G. Scalmani, V. Barone, B. Mennucci, 
 G. A. Petersson, H. Nakatsuji, M. Caricato, X. Li, H. P. Hratchian, 
 A. F. Izmaylov, J. Bloino, G. Zheng, J. L. Sonnenberg, M. Hada, 
 M. Ehara, K. Toyota, R. Fukuda, J. Hasegawa, M. Ishida, T. Nakajima, 
 Y. Honda, O. Kitao, H. Nakai, T. Vreven, J. A. Montgomery, Jr., 
 J. E. Peralta, F. Ogliaro, M. Bearpark, J. J. Heyd, E. Brothers, 
 K. N. Kudin, V. N. Staroverov, T. Keith, R. Kobayashi, J. Normand, 
 K. Raghavachari, A. Rendell, J. C. Burant, S. S. Iyengar, J. Tomasi, 
 M. Cossi, N. Rega, J. M. Millam, M. Klene, J. E. Knox, J. B. Cross, 
 V. Bakken, C. Adamo, J. Jaramillo, R. Gomperts, R. E. Stratmann, 
 O. Yazyev, A. J. Austin, R. Cammi, C. Pomelli, J. W. Ochterski, 
 R. L. Martin, K. Morokuma, V. G. Zakrzewski, G. A. Voth, 
 P. Salvador, J. J. Dannenberg, S. Dapprich, A. D. Daniels, 
 O. Farkas, J. B. Foresman, J. V. Ortiz, J. Cioslowski, 
 and D. J. Fox, Gaussian, Inc., Wallingford CT, 2013.
 
 ******************************************
 Gaussian 09:  ES64L-G09RevD.01 24-Apr-2013
                 2-Feb-2018 
 ******************************************
 %chk=Sub-10-Cl-18-tBu.S.2_2a_s_up_c.Cf1.chk
 ---------------------------------------------------------
 #M06/genecp denfit freq=(hpmodes,noraman,temperature=298)
 ---------------------------------------------------------
 1/10=4,30=1,38=1,112=298000/1,3;
 2/12=2,17=6,18=5,40=1/2;
 3/5=7,11=2,16=1,17=8,25=1,30=1,71=2,74=-54,82=47,140=1/1,2,3;
 4//1;
 5/5=2,38=5,98=1/2;
 8/6=4,10=90,11=11/1;
 11/6=1,8=1,9=11,15=111,16=1/1,2,10;
 10/6=1/2;
 6/7=2,8=2,9=2,10=2,18=1,28=1/1;
 7/8=11,10=1,25=1/1,2,3,16;
 1/10=4,30=1/3;
 99//99;
 -----------------------------------------------------
 Sub-10-Cl-18-tBu/S/2_2a_s_up_c/Cf1 step 4 (attempt 1)
 -----------------------------------------------------
 Symbolic Z-matrix:
 Charge =  1 Multiplicity = 1
 C                    0     1.62069   1.99448  -0.83882 
 C                    0     2.32729   2.91346  -1.59632 
 C                    0     3.72042   2.83937  -1.59028 
 C                    0     4.33455   1.89182  -0.79355 
 H                    0     5.41572   1.82112  -0.70929 
 C                    0     3.52567   1.01255  -0.06127 
 N                    0     2.2013    1.01016  -0.10884 
 H                    0     4.31592   3.5351   -2.17742 
 H                    0     1.79357   3.67491  -2.15875 
 Cl                   0     4.30388  -0.08358   1.01885 
 C                    0     0.16544   2.10762  -0.68617 
 O                    0    -0.45096   3.0986   -1.32266 
 N                    0    -0.5293    1.35021   0.08151 
 C                    0    -1.86302   2.93742  -1.01985 
 H                    0    -2.25782   3.92769  -0.77731 
 H                    0    -2.35443   2.5651   -1.92683 
 C                    0    -1.88414   1.93239   0.14403 
 C                    0    -2.1892    2.54899   1.53056 
 H                    0    -2.62558   1.14086  -0.04547 
 Pd                   0     0.44098  -0.66451   0.18852 
 C                    0    -4.292    -1.69165  -0.04911 
 C                    0    -3.45697  -2.66353   0.76478 
 C                    0    -2.13244  -1.99934   1.13015 
 C                    0    -1.39891  -1.58805  -0.11604 
 C                    0    -2.04883  -1.17086  -1.23134 
 H                    0    -3.99404  -2.97237   1.6706 
 H                    0    -2.32066  -1.1057    1.74698 
 C                    0     2.54148  -2.55881  -0.76222 
 H                    0     3.38664  -2.1273   -0.22057 
 H                    0     2.38249  -1.98751  -1.68546 
 C                    0     1.31934  -2.60989   0.10962 
 C                    0     0.05627  -2.97087  -0.45896 
 H                    0    -4.6384   -0.8629    0.59446 
 C                    0     1.53836  -3.09026   1.52544 
 H                    0     0.58723  -3.05892   2.08673 
 H                    0     1.8392   -4.15576   1.45923 
 C                    0    -3.5378   -1.05432  -1.19231 
 O                    0    -4.11657  -0.40278  -2.04639 
 H                    0    -5.20241  -2.14477  -0.46171 
 H                    0    -3.25823  -3.57932   0.18307 
 H                    0    -1.52008  -2.65937   1.75926 
 C                    0    -0.04316  -3.42331  -1.88415 
 H                    0     0.47616  -4.39174  -1.95691 
 H                    0    -1.08366  -3.57656  -2.18937 
 H                    0     0.43739  -2.75146  -2.6012 
 O                    0     2.53136  -2.32777   2.15544 
 H                    0     2.76507  -2.73228   3.00235 
 H                    0     2.82504  -3.58393  -1.05763 
 H                    0    -0.56204  -3.57483   0.21343 
 C                    0    -1.41678  -0.66616  -2.48912 
 H                    0    -1.74194   0.36554  -2.68148 
 H                    0    -0.32139  -0.67479  -2.43911 
 H                    0    -1.74831  -1.24092  -3.36521 
 C                    0    -1.18958   3.64711   1.88968 
 H                    0    -1.45368   4.08675   2.8608 
 H                    0    -0.16752   3.25275   1.97911 
 H                    0    -1.18148   4.46992   1.16076 
 C                    0    -3.60812   3.12021   1.49372 
 H                    0    -4.33995   2.36046   1.17946 
 H                    0    -3.89979   3.46604   2.49452 
 H                    0    -3.70683   3.98128   0.81881 
 C                    0    -2.13919   1.45878   2.59838 
 H                    0    -2.31524   1.89443   3.59136 
 H                    0    -2.92727   0.7079    2.43352 
 H                    0    -1.16557   0.94933   2.62573 
 

 GradGradGradGradGradGradGradGradGradGradGradGradGradGradGradGradGradGrad
 Berny optimization.
 Initialization pass.
 Trust Radius=3.00D-01 FncErr=1.00D-07 GrdErr=1.00D-07
 Number of steps in this run=      2 maximum allowed number of steps=      2.
 GradGradGradGradGradGradGradGradGradGradGradGradGradGradGradGradGradGrad

 Stoichiometry    C24H34ClN2O3Pd(1+)
 Framework group  C1[X(C24H34ClN2O3Pd)]
 Deg. of freedom   189
 Full point group                 C1      NOp   1
 Largest Abelian subgroup         C1      NOp   1
 Largest concise Abelian subgroup C1      NOp   1
                         Standard orientation:                         
 ---------------------------------------------------------------------
 Center     Atomic      Atomic             Coordinates (Angstroms)
 Number     Number       Type             X           Y           Z
 ---------------------------------------------------------------------
      1          6           0        1.620688    1.994475   -0.838818
      2          6           0        2.327291    2.913456   -1.596322
      3          6           0        3.720422    2.839373   -1.590281
      4          6           0        4.334546    1.891822   -0.793552
      5          1           0        5.415723    1.821120   -0.709294
      6          6           0        3.525671    1.012552   -0.061270
      7          7           0        2.201302    1.010158   -0.108842
      8          1           0        4.315917    3.535099   -2.177417
      9          1           0        1.793565    3.674909   -2.158750
     10         17           0        4.303876   -0.083584    1.018849
     11          6           0        0.165437    2.107619   -0.686172
     12          8           0       -0.450961    3.098597   -1.322659
     13          7           0       -0.529304    1.350206    0.081507
     14          6           0       -1.863017    2.937421   -1.019845
     15          1           0       -2.257821    3.927686   -0.777309
     16          1           0       -2.354430    2.565097   -1.926832
     17          6           0       -1.884139    1.932388    0.144030
     18          6           0       -2.189197    2.548985    1.530555
     19          1           0       -2.625582    1.140864   -0.045467
     20         46           0        0.440980   -0.664514    0.188524
     21          6           0       -4.291995   -1.691653   -0.049111
     22          6           0       -3.456966   -2.663530    0.764776
     23          6           0       -2.132435   -1.999335    1.130151
     24          6           0       -1.398907   -1.588053   -0.116035
     25          6           0       -2.048828   -1.170864   -1.231337
     26          1           0       -3.994039   -2.972371    1.670602
     27          1           0       -2.320663   -1.105695    1.746983
     28          6           0        2.541478   -2.558808   -0.762218
     29          1           0        3.386643   -2.127303   -0.220571
     30          1           0        2.382487   -1.987506   -1.685462
     31          6           0        1.319338   -2.609887    0.109620
     32          6           0        0.056273   -2.970867   -0.458961
     33          1           0       -4.638404   -0.862902    0.594464
     34          6           0        1.538355   -3.090264    1.525441
     35          1           0        0.587231   -3.058919    2.086730
     36          1           0        1.839195   -4.155763    1.459231
     37          6           0       -3.537796   -1.054325   -1.192314
     38          8           0       -4.116568   -0.402780   -2.046386
     39          1           0       -5.202411   -2.144769   -0.461707
     40          1           0       -3.258234   -3.579319    0.183066
     41          1           0       -1.520083   -2.659368    1.759257
     42          6           0       -0.043162   -3.423309   -1.884148
     43          1           0        0.476160   -4.391742   -1.956910
     44          1           0       -1.083659   -3.576559   -2.189368
     45          1           0        0.437390   -2.751455   -2.601196
     46          8           0        2.531357   -2.327767    2.155443
     47          1           0        2.765073   -2.732283    3.002347
     48          1           0        2.825039   -3.583926   -1.057634
     49          1           0       -0.562044   -3.574825    0.213431
     50          6           0       -1.416781   -0.666159   -2.489116
     51          1           0       -1.741940    0.365540   -2.681477
     52          1           0       -0.321389   -0.674785   -2.439106
     53          1           0       -1.748312   -1.240923   -3.365210
     54          6           0       -1.189580    3.647110    1.889683
     55          1           0       -1.453678    4.086751    2.860803
     56          1           0       -0.167524    3.252749    1.979110
     57          1           0       -1.181479    4.469921    1.160759
     58          6           0       -3.608118    3.120212    1.493723
     59          1           0       -4.339950    2.360458    1.179463
     60          1           0       -3.899794    3.466041    2.494520
     61          1           0       -3.706827    3.981277    0.818807
     62          6           0       -2.139187    1.458782    2.598384
     63          1           0       -2.315237    1.894434    3.591356
     64          1           0       -2.927268    0.707901    2.433520
     65          1           0       -1.165571    0.949332    2.625725
 ---------------------------------------------------------------------
 Rotational constants (GHZ):      0.1641748      0.1260821      0.0929818
 General basis read from cards:  (5D, 7F)
 ======================================================================================================
                                       Pseudopotential Parameters
 ======================================================================================================
  Center     Atomic      Valence      Angular      Power
  Number     Number     Electrons     Momentum     of R      Exponent        Coefficient   SO-Coeffient
 ======================================================================================================
    1          6
                                   No pseudopotential on this center.
    2          6
                                   No pseudopotential on this center.
    3          6
                                   No pseudopotential on this center.
    4          6
                                   No pseudopotential on this center.
    5          1
                                   No pseudopotential on this center.
    6          6
                                   No pseudopotential on this center.
    7          7
                                   No pseudopotential on this center.
    8          1
                                   No pseudopotential on this center.
    9          1
                                   No pseudopotential on this center.
   10         17
                                   No pseudopotential on this center.
   11          6
                                   No pseudopotential on this center.
   12          8
                                   No pseudopotential on this center.
   13          7
                                   No pseudopotential on this center.
   14          6
                                   No pseudopotential on this center.
   15          1
                                   No pseudopotential on this center.
   16          1
                                   No pseudopotential on this center.
   17          6
                                   No pseudopotential on this center.
   18          6
                                   No pseudopotential on this center.
   19          1
                                   No pseudopotential on this center.
   20         46           18
                                      F and up 
                                                     0      598.3336444       -0.05631770    0.00000000
                                                     1      162.4298290      -20.12880360    0.00000000
                                                     2       51.5714771     -105.81979230    0.00000000
                                                     2       16.4888260      -42.57333450    0.00000000
                                                     2        5.8287656       -3.61650860    0.00000000
                                      S - F
                                                     0       73.3806304        3.00036510    0.00000000
                                                     1       14.7550438       32.43500930    0.00000000
                                                     2       17.8350204      459.08303830    0.00000000
                                                     2       12.7111477     -868.06290290    0.00000000
                                                     2        9.3292063      514.47260980    0.00000000
                                      P - F
                                                     0       55.6689877        4.95930990    0.00000000
                                                     1       64.2337771       21.17110290    0.00000000
                                                     2       17.6254952      605.05600920    0.00000000
                                                     2       11.9058155     -726.96418460    0.00000000
                                                     2        8.5100832      396.32748830    0.00000000
                                      D - F
                                                     0       49.9994728        3.05087450    0.00000000
                                                     1       39.7477547       22.25065800    0.00000000
                                                     2       11.4321366      674.83576980    0.00000000
                                                     2        9.1790080    -1040.85540480    0.00000000
                                                     2        7.5624429      505.93751470    0.00000000
   21          6
                                   No pseudopotential on this center.
   22          6
                                   No pseudopotential on this center.
   23          6
                                   No pseudopotential on this center.
   24          6
                                   No pseudopotential on this center.
   25          6
                                   No pseudopotential on this center.
   26          1
                                   No pseudopotential on this center.
   27          1
                                   No pseudopotential on this center.
   28          6
                                   No pseudopotential on this center.
   29          1
                                   No pseudopotential on this center.
   30          1
                                   No pseudopotential on this center.
   31          6
                                   No pseudopotential on this center.
   32          6
                                   No pseudopotential on this center.
   33          1
                                   No pseudopotential on this center.
   34          6
                                   No pseudopotential on this center.
   35          1
                                   No pseudopotential on this center.
   36          1
                                   No pseudopotential on this center.
   37          6
                                   No pseudopotential on this center.
   38          8
                                   No pseudopotential on this center.
   39          1
                                   No pseudopotential on this center.
   40          1
                                   No pseudopotential on this center.
   41          1
                                   No pseudopotential on this center.
   42          6
                                   No pseudopotential on this center.
   43          1
                                   No pseudopotential on this center.
   44          1
                                   No pseudopotential on this center.
   45          1
                                   No pseudopotential on this center.
   46          8
                                   No pseudopotential on this center.
   47          1
                                   No pseudopotential on this center.
   48          1
                                   No pseudopotential on this center.
   49          1
                                   No pseudopotential on this center.
   50          6
                                   No pseudopotential on this center.
   51          1
                                   No pseudopotential on this center.
   52          1
                                   No pseudopotential on this center.
   53          1
                                   No pseudopotential on this center.
   54          6
                                   No pseudopotential on this center.
   55          1
                                   No pseudopotential on this center.
   56          1
                                   No pseudopotential on this center.
   57          1
                                   No pseudopotential on this center.
   58          6
                                   No pseudopotential on this center.
   59          1
                                   No pseudopotential on this center.
   60          1
                                   No pseudopotential on this center.
   61          1
                                   No pseudopotential on this center.
   62          6
                                   No pseudopotential on this center.
   63          1
                                   No pseudopotential on this center.
   64          1
                                   No pseudopotential on this center.
   65          1
                                   No pseudopotential on this center.
 ======================================================================================================
 There are   666 symmetry adapted cartesian basis functions of A   symmetry.
 There are   634 symmetry adapted basis functions of A   symmetry.
   634 basis functions,  1169 primitive gaussians,   666 cartesian basis functions
   125 alpha electrons      125 beta electrons
       nuclear repulsion energy      4003.0938183268 Hartrees.
 NAtoms=   65 NActive=   65 NUniq=   65 SFac= 1.00D+00 NAtFMM=   60 NAOKFM=T Big=T
 Integral buffers will be    131072 words long.
 Raffenetti 2 integral format.
 Two-electron integral symmetry is turned on.
 Standard density basis: Auto (5D, 7F)
  2775 Density fitting functions
 There are  2775 symmetry adapted density basis functions of A   symmetry.
 One-electron integrals computed using PRISM.
   1 Symmetry operations used in ECPInt.
 ECPInt:  NShTT=   25878 NPrTT=  135610 LenC2=   23235 LenP2D=   72462.
 LDataN:  DoStor=T MaxTD1= 5 Len=  102
 NBasis=   634 RedAO= T EigKep=  1.58D-06  NBF=   634
 NBsUse=   632 1.00D-06 EigRej=  9.86D-07 NBFU=   632
 Defaulting to unpruned grid for atomic number  46.
 ExpMin= 2.62D-02 ExpMax= 2.52D+04 ExpMxC= 3.78D+03 IAcc=3 IRadAn=         5 AccDes= 0.00D+00
 Harris functional with IExCor= 1009 and IRadAn=       5 diagonalized for initial guess.
 HarFok:  IExCor= 1009 AccDes= 0.00D+00 IRadAn=         5 IDoV= 1 UseB2=F ITyADJ=14
 ICtDFT=  3500011 ScaDFX=  1.000000  1.000000  1.000000  1.000000
 Defaulting to unpruned grid for atomic number  46.
 Defaulting to unpruned grid for atomic number  46.
 Defaulting to unpruned grid for atomic number  46.
 Defaulting to unpruned grid for atomic number  46.
 Defaulting to unpruned grid for atomic number  46.
 Defaulting to unpruned grid for atomic number  46.
 Defaulting to unpruned grid for atomic number  46.
 Defaulting to unpruned grid for atomic number  46.
 Defaulting to unpruned grid for atomic number  46.
 Defaulting to unpruned grid for atomic number  46.
 Defaulting to unpruned grid for atomic number  46.
 Defaulting to unpruned grid for atomic number  46.
 Defaulting to unpruned grid for atomic number  46.
 Defaulting to unpruned grid for atomic number  46.
 Defaulting to unpruned grid for atomic number  46.
 Defaulting to unpruned grid for atomic number  46.
 Defaulting to unpruned grid for atomic number  46.
 Defaulting to unpruned grid for atomic number  46.
 Defaulting to unpruned grid for atomic number  46.
 Defaulting to unpruned grid for atomic number  46.
 Defaulting to unpruned grid for atomic number  46.
 Defaulting to unpruned grid for atomic number  46.
 Defaulting to unpruned grid for atomic number  46.
 Defaulting to unpruned grid for atomic number  46.
 Defaulting to unpruned grid for atomic number  46.
 Defaulting to unpruned grid for atomic number  46.
 Defaulting to unpruned grid for atomic number  46.
 Defaulting to unpruned grid for atomic number  46.
 FoFCou: FMM=F IPFlag=           0 FMFlag=      100000 FMFlg1=        2001
         NFxFlg=           0 DoJE=T BraDBF=F KetDBF=T FulRan=T
         wScrn=  0.000000 ICntrl=     500 IOpCl=  0 I1Cent=   200000004 NGrid=           0
         NMat0=    1 NMatS0=      1 NMatT0=    0 NMatD0=    1 NMtDS0=    0 NMtDT0=    0
 Petite list used in FoFCou.
 Requested convergence on RMS density matrix=1.00D-08 within 128 cycles.
 Requested convergence on MAX density matrix=1.00D-06.
 Requested convergence on             energy=1.00D-06.
 No special actions if energy rises.
 Defaulting to unpruned grid for atomic number  46.
 Defaulting to unpruned grid for atomic number  46.
 Defaulting to unpruned grid for atomic number  46.
 Defaulting to unpruned grid for atomic number  46.
 Defaulting to unpruned grid for atomic number  46.
 Defaulting to unpruned grid for atomic number  46.
 Defaulting to unpruned grid for atomic number  46.
 Defaulting to unpruned grid for atomic number  46.
 Defaulting to unpruned grid for atomic number  46.
 Defaulting to unpruned grid for atomic number  46.
 Defaulting to unpruned grid for atomic number  46.
 Defaulting to unpruned grid for atomic number  46.
 Defaulting to unpruned grid for atomic number  46.
 Defaulting to unpruned grid for atomic number  46.
 Defaulting to unpruned grid for atomic number  46.
 Defaulting to unpruned grid for atomic number  46.
 Defaulting to unpruned grid for atomic number  46.
 Defaulting to unpruned grid for atomic number  46.
 Defaulting to unpruned grid for atomic number  46.
 Defaulting to unpruned grid for atomic number  46.
 Defaulting to unpruned grid for atomic number  46.
 Defaulting to unpruned grid for atomic number  46.
 Defaulting to unpruned grid for atomic number  46.
 Defaulting to unpruned grid for atomic number  46.
 Defaulting to unpruned grid for atomic number  46.
 Defaulting to unpruned grid for atomic number  46.
 Defaulting to unpruned grid for atomic number  46.
 Defaulting to unpruned grid for atomic number  46.
 EnCoef did   100 forward-backward iterations
 EnCoef did   100 forward-backward iterations
 EnCoef did   100 forward-backward iterations
 EnCoef did     2 forward-backward iterations
 Restarting incremental Fock formation.
 SCF Done:  E(RM06) =  -1856.01475883     A.U. after   24 cycles
            NFock= 24  Conv=0.89D-08     -V/T= 2.0507
 DoSCS=F DFT=T ScalE2(SS,OS)=  1.000000  1.000000
 Range of M.O.s used for correlation:     1   632
 NBasis=   634 NAE=   125 NBE=   125 NFC=     0 NFV=     0
 NROrb=    632 NOA=   125 NOB=   125 NVA=   507 NVB=   507

 **** Warning!!: The largest alpha MO coefficient is  0.11335612D+03

   1 Symmetry operations used in ECPInt.
 ECPInt:  NShTT=   25878 NPrTT=  135610 LenC2=   23235 LenP2D=   72462.
 LDataN:  DoStor=T MaxTD1= 6 Len=  172
 Number of processors reduced to   9 by ecpmxn.
 Symmetrizing basis deriv contribution to polar:
 IMax=3 JMax=2 DiffMx= 0.00D+00
 G2DrvN: will do    66 centers at a time, making    1 passes.
 Calling FoFCou, ICntrl=  3107 FMM=T I1Cent=   0 AccDes= 0.00D+00.
 Defaulting to unpruned grid for atomic number  46.
 Defaulting to unpruned grid for atomic number  46.
 Defaulting to unpruned grid for atomic number  46.
 Defaulting to unpruned grid for atomic number  46.
 Defaulting to unpruned grid for atomic number  46.
 Defaulting to unpruned grid for atomic number  46.
 Defaulting to unpruned grid for atomic number  46.
 Defaulting to unpruned grid for atomic number  46.
 Defaulting to unpruned grid for atomic number  46.
 Defaulting to unpruned grid for atomic number  46.
 Defaulting to unpruned grid for atomic number  46.
 Defaulting to unpruned grid for atomic number  46.
 Defaulting to unpruned grid for atomic number  46.
 Defaulting to unpruned grid for atomic number  46.
 Defaulting to unpruned grid for atomic number  46.
 Defaulting to unpruned grid for atomic number  46.
 Defaulting to unpruned grid for atomic number  46.
 Defaulting to unpruned grid for atomic number  46.
 Defaulting to unpruned grid for atomic number  46.
 Defaulting to unpruned grid for atomic number  46.
 Defaulting to unpruned grid for atomic number  46.
 Defaulting to unpruned grid for atomic number  46.
 Defaulting to unpruned grid for atomic number  46.
 Defaulting to unpruned grid for atomic number  46.
 Defaulting to unpruned grid for atomic number  46.
 Defaulting to unpruned grid for atomic number  46.
 Defaulting to unpruned grid for atomic number  46.
 Defaulting to unpruned grid for atomic number  46.
 End of G2Drv F.D. properties file   721 does not exist.
 End of G2Drv F.D. properties file   722 does not exist.
 End of G2Drv F.D. properties file   788 does not exist.
          IDoAtm=11111111111111111111111111111111111111111111111111
          IDoAtm=111111111111111
          Differentiating once with respect to electric field.
                with respect to dipole field.
          Differentiating once with respect to nuclear coordinates.
 Defaulting to unpruned grid for atomic number  46.
 CalDSu exits because no D1Ps are significant.
 Defaulting to unpruned grid for atomic number  46.
 Defaulting to unpruned grid for atomic number  46.
 Defaulting to unpruned grid for atomic number  46.
 Defaulting to unpruned grid for atomic number  46.
 Defaulting to unpruned grid for atomic number  46.
 Defaulting to unpruned grid for atomic number  46.
 Defaulting to unpruned grid for atomic number  46.
 Defaulting to unpruned grid for atomic number  46.
 Defaulting to unpruned grid for atomic number  46.
 Defaulting to unpruned grid for atomic number  46.
 Defaulting to unpruned grid for atomic number  46.
 Defaulting to unpruned grid for atomic number  46.
 Defaulting to unpruned grid for atomic number  46.
 Defaulting to unpruned grid for atomic number  46.
 Defaulting to unpruned grid for atomic number  46.
 Defaulting to unpruned grid for atomic number  46.
 Defaulting to unpruned grid for atomic number  46.
 Defaulting to unpruned grid for atomic number  46.
 Defaulting to unpruned grid for atomic number  46.
 Defaulting to unpruned grid for atomic number  46.
 Defaulting to unpruned grid for atomic number  46.
 Defaulting to unpruned grid for atomic number  46.
 Defaulting to unpruned grid for atomic number  46.
 Defaulting to unpruned grid for atomic number  46.
 Defaulting to unpruned grid for atomic number  46.
 Defaulting to unpruned grid for atomic number  46.
 Defaulting to unpruned grid for atomic number  46.
 Defaulting to unpruned grid for atomic number  46.
          There are   198 degrees of freedom in the 1st order CPHF.  IDoFFX=6 NUNeed=     3.
    198 vectors produced by pass  0 Test12= 6.34D-14 1.00D-09 XBig12= 4.50D+02 8.45D+00.
 AX will form    84 AO Fock derivatives at one time.
    198 vectors produced by pass  1 Test12= 6.34D-14 1.00D-09 XBig12= 8.12D+01 1.21D+00.
    195 vectors produced by pass  2 Test12= 6.34D-14 1.00D-09 XBig12= 1.25D+00 1.09D-01.
    195 vectors produced by pass  3 Test12= 6.34D-14 1.00D-09 XBig12= 9.07D-03 7.32D-03.
    195 vectors produced by pass  4 Test12= 6.34D-14 1.00D-09 XBig12= 4.95D-05 6.09D-04.
    195 vectors produced by pass  5 Test12= 6.34D-14 1.00D-09 XBig12= 1.46D-07 2.14D-05.
    195 vectors produced by pass  6 Test12= 6.34D-14 1.00D-09 XBig12= 3.38D-10 1.06D-06.
    193 vectors produced by pass  7 Test12= 6.34D-14 1.00D-09 XBig12= 2.33D-12 6.22D-08.
    193 vectors produced by pass  8 Test12= 6.34D-14 1.00D-09 XBig12= 1.61D-13 1.72D-08.
    193 vectors produced by pass  9 Test12= 6.34D-14 1.00D-09 XBig12= 1.35D-13 1.69D-08.
    184 vectors produced by pass 10 Test12= 6.34D-14 1.00D-09 XBig12= 1.62D-13 1.68D-08.
    129 vectors produced by pass 11 Test12= 6.34D-14 1.00D-09 XBig12= 1.23D-13 1.25D-08.
    124 vectors produced by pass 12 Test12= 6.34D-14 1.00D-09 XBig12= 5.45D-14 8.18D-09.
    120 vectors produced by pass 13 Test12= 6.34D-14 1.00D-09 XBig12= 5.80D-14 8.34D-09.
     76 vectors produced by pass 14 Test12= 6.34D-14 1.00D-09 XBig12= 3.93D-14 7.28D-09.
     70 vectors produced by pass 15 Test12= 6.34D-14 1.00D-09 XBig12= 3.16D-14 6.27D-09.
     69 vectors produced by pass 16 Test12= 6.34D-14 1.00D-09 XBig12= 2.52D-14 5.39D-09.
     37 vectors produced by pass 17 Test12= 6.34D-14 1.00D-09 XBig12= 9.55D-15 3.57D-09.
     37 vectors produced by pass 18 Test12= 6.34D-14 1.00D-09 XBig12= 1.66D-14 4.43D-09.
     37 vectors produced by pass 19 Test12= 6.34D-14 1.00D-09 XBig12= 3.89D-14 6.99D-09.
     29 vectors produced by pass 20 Test12= 6.34D-14 1.00D-09 XBig12= 5.89D-15 2.69D-09.
     29 vectors produced by pass 21 Test12= 6.34D-14 1.00D-09 XBig12= 1.61D-14 4.61D-09.
     29 vectors produced by pass 22 Test12= 6.34D-14 1.00D-09 XBig12= 1.88D-14 4.85D-09.
     29 vectors produced by pass 23 Test12= 6.34D-14 1.00D-09 XBig12= 8.83D-15 3.23D-09.
     29 vectors produced by pass 24 Test12= 6.34D-14 1.00D-09 XBig12= 2.03D-14 4.62D-09.
     29 vectors produced by pass 25 Test12= 6.34D-14 1.00D-09 XBig12= 1.59D-14 4.58D-09.
     29 vectors produced by pass 26 Test12= 6.34D-14 1.00D-09 XBig12= 2.30D-14 5.05D-09.
     29 vectors produced by pass 27 Test12= 6.34D-14 1.00D-09 XBig12= 2.16D-14 4.89D-09.
     27 vectors produced by pass 28 Test12= 6.34D-14 1.00D-09 XBig12= 6.77D-15 2.69D-09.
     27 vectors produced by pass 29 Test12= 6.34D-14 1.00D-09 XBig12= 1.23D-14 3.78D-09.
     27 vectors produced by pass 30 Test12= 6.34D-14 1.00D-09 XBig12= 1.17D-14 3.56D-09.
     27 vectors produced by pass 31 Test12= 6.34D-14 1.00D-09 XBig12= 1.28D-14 4.16D-09.
     27 vectors produced by pass 32 Test12= 6.34D-14 1.00D-09 XBig12= 1.05D-14 3.13D-09.
     27 vectors produced by pass 33 Test12= 6.34D-14 1.00D-09 XBig12= 9.62D-15 2.95D-09.
     27 vectors produced by pass 34 Test12= 6.34D-14 1.00D-09 XBig12= 1.02D-14 3.30D-09.
     27 vectors produced by pass 35 Test12= 6.34D-14 1.00D-09 XBig12= 1.32D-14 3.73D-09.
     26 vectors produced by pass 36 Test12= 6.34D-14 1.00D-09 XBig12= 7.09D-15 2.50D-09.
     26 vectors produced by pass 37 Test12= 6.34D-14 1.00D-09 XBig12= 7.39D-15 2.91D-09.
     26 vectors produced by pass 38 Test12= 6.34D-14 1.00D-09 XBig12= 1.01D-14 3.56D-09.
     26 vectors produced by pass 39 Test12= 6.34D-14 1.00D-09 XBig12= 1.08D-14 3.93D-09.
     26 vectors produced by pass 40 Test12= 6.34D-14 1.00D-09 XBig12= 1.31D-14 4.31D-09.
     26 vectors produced by pass 41 Test12= 6.34D-14 1.00D-09 XBig12= 6.95D-15 2.79D-09.
     26 vectors produced by pass 42 Test12= 6.34D-14 1.00D-09 XBig12= 9.06D-15 3.05D-09.
     26 vectors produced by pass 43 Test12= 6.34D-14 1.00D-09 XBig12= 8.78D-15 3.00D-09.
     23 vectors produced by pass 44 Test12= 6.34D-14 1.00D-09 XBig12= 5.61D-15 2.22D-09.
     19 vectors produced by pass 45 Test12= 6.34D-14 1.00D-09 XBig12= 5.04D-15 2.46D-09.
     19 vectors produced by pass 46 Test12= 6.34D-14 1.00D-09 XBig12= 8.64D-15 2.98D-09.
     19 vectors produced by pass 47 Test12= 6.34D-14 1.00D-09 XBig12= 7.12D-15 2.37D-09.
     19 vectors produced by pass 48 Test12= 6.34D-14 1.00D-09 XBig12= 7.32D-15 2.52D-09.
     18 vectors produced by pass 49 Test12= 6.34D-14 1.00D-09 XBig12= 5.39D-15 2.51D-09.
     17 vectors produced by pass 50 Test12= 6.34D-14 1.00D-09 XBig12= 6.44D-15 2.62D-09.
     17 vectors produced by pass 51 Test12= 6.34D-14 1.00D-09 XBig12= 1.05D-14 3.03D-09.
     17 vectors produced by pass 52 Test12= 6.34D-14 1.00D-09 XBig12= 1.20D-14 3.69D-09.
     12 vectors produced by pass 53 Test12= 6.34D-14 1.00D-09 XBig12= 3.88D-15 1.77D-09.
     12 vectors produced by pass 54 Test12= 6.34D-14 1.00D-09 XBig12= 1.36D-14 3.39D-09.
     11 vectors produced by pass 55 Test12= 6.34D-14 1.00D-09 XBig12= 3.41D-15 2.00D-09.
     11 vectors produced by pass 56 Test12= 6.34D-14 1.00D-09 XBig12= 5.90D-15 2.42D-09.
      6 vectors produced by pass 57 Test12= 6.34D-14 1.00D-09 XBig12= 1.70D-15 1.32D-09.
      6 vectors produced by pass 58 Test12= 6.34D-14 1.00D-09 XBig12= 8.16D-15 2.49D-09.
      6 vectors produced by pass 59 Test12= 6.34D-14 1.00D-09 XBig12= 9.86D-15 2.92D-09.
      6 vectors produced by pass 60 Test12= 6.34D-14 1.00D-09 XBig12= 5.78D-15 2.48D-09.
      6 vectors produced by pass 61 Test12= 6.34D-14 1.00D-09 XBig12= 7.90D-15 2.96D-09.
      6 vectors produced by pass 62 Test12= 6.34D-14 1.00D-09 XBig12= 4.73D-15 2.30D-09.
      6 vectors produced by pass 63 Test12= 6.34D-14 1.00D-09 XBig12= 9.99D-15 3.40D-09.
      6 vectors produced by pass 64 Test12= 6.34D-14 1.00D-09 XBig12= 4.22D-15 2.06D-09.
      6 vectors produced by pass 65 Test12= 6.34D-14 1.00D-09 XBig12= 6.59D-15 2.66D-09.
      6 vectors produced by pass 66 Test12= 6.34D-14 1.00D-09 XBig12= 7.40D-15 2.75D-09.
      6 vectors produced by pass 67 Test12= 6.34D-14 1.00D-09 XBig12= 6.10D-15 2.92D-09.
      6 vectors produced by pass 68 Test12= 6.34D-14 1.00D-09 XBig12= 8.38D-15 2.81D-09.
      6 vectors produced by pass 69 Test12= 6.34D-14 1.00D-09 XBig12= 2.74D-15 1.70D-09.
      6 vectors produced by pass 70 Test12= 6.34D-14 1.00D-09 XBig12= 7.58D-15 2.78D-09.
      6 vectors produced by pass 71 Test12= 6.34D-14 1.00D-09 XBig12= 3.68D-15 2.04D-09.
      6 vectors produced by pass 72 Test12= 6.34D-14 1.00D-09 XBig12= 5.11D-15 2.08D-09.
      6 vectors produced by pass 73 Test12= 6.34D-14 1.00D-09 XBig12= 2.65D-15 1.69D-09.
      6 vectors produced by pass 74 Test12= 6.34D-14 1.00D-09 XBig12= 1.10D-14 3.25D-09.
      6 vectors produced by pass 75 Test12= 6.34D-14 1.00D-09 XBig12= 2.88D-15 1.76D-09.
      6 vectors produced by pass 76 Test12= 6.34D-14 1.00D-09 XBig12= 5.83D-15 2.95D-09.
      6 vectors produced by pass 77 Test12= 6.34D-14 1.00D-09 XBig12= 4.88D-15 2.23D-09.
      6 vectors produced by pass 78 Test12= 6.34D-14 1.00D-09 XBig12= 2.25D-15 1.65D-09.
      6 vectors produced by pass 79 Test12= 6.34D-14 1.00D-09 XBig12= 5.03D-15 2.21D-09.
      6 vectors produced by pass 80 Test12= 6.34D-14 1.00D-09 XBig12= 6.37D-15 2.48D-09.
      6 vectors produced by pass 81 Test12= 6.34D-14 1.00D-09 XBig12= 2.00D-15 1.39D-09.
      6 vectors produced by pass 82 Test12= 6.34D-14 1.00D-09 XBig12= 4.58D-15 2.47D-09.
      6 vectors produced by pass 83 Test12= 6.34D-14 1.00D-09 XBig12= 4.31D-15 1.95D-09.
      6 vectors produced by pass 84 Test12= 6.34D-14 1.00D-09 XBig12= 5.31D-15 2.06D-09.
      6 vectors produced by pass 85 Test12= 6.34D-14 1.00D-09 XBig12= 6.28D-15 2.69D-09.
      6 vectors produced by pass 86 Test12= 6.34D-14 1.00D-09 XBig12= 3.88D-15 2.37D-09.
      6 vectors produced by pass 87 Test12= 6.34D-14 1.00D-09 XBig12= 2.77D-15 1.76D-09.
      6 vectors produced by pass 88 Test12= 6.34D-14 1.00D-09 XBig12= 3.97D-15 1.92D-09.
      6 vectors produced by pass 89 Test12= 6.34D-14 1.00D-09 XBig12= 4.95D-15 2.11D-09.
      6 vectors produced by pass 90 Test12= 6.34D-14 1.00D-09 XBig12= 4.95D-15 2.52D-09.
      6 vectors produced by pass 91 Test12= 6.34D-14 1.00D-09 XBig12= 2.39D-15 1.64D-09.
      6 vectors produced by pass 92 Test12= 6.34D-14 1.00D-09 XBig12= 4.95D-15 2.84D-09.
      6 vectors produced by pass 93 Test12= 6.34D-14 1.00D-09 XBig12= 3.57D-15 1.80D-09.
      6 vectors produced by pass 94 Test12= 6.34D-14 1.00D-09 XBig12= 4.28D-15 2.10D-09.
      6 vectors produced by pass 95 Test12= 6.34D-14 1.00D-09 XBig12= 6.58D-15 2.91D-09.
      6 vectors produced by pass 96 Test12= 6.34D-14 1.00D-09 XBig12= 4.18D-15 1.88D-09.
      6 vectors produced by pass 97 Test12= 6.34D-14 1.00D-09 XBig12= 3.73D-15 1.75D-09.
      6 vectors produced by pass 98 Test12= 6.34D-14 1.00D-09 XBig12= 4.85D-15 1.99D-09.
      6 vectors produced by pass 99 Test12= 6.34D-14 1.00D-09 XBig12= 4.95D-15 2.01D-09.
      6 vectors produced by pass100 Test12= 6.34D-14 1.00D-09 XBig12= 5.78D-15 2.64D-09.
      6 vectors produced by pass101 Test12= 6.34D-14 1.00D-09 XBig12= 3.89D-15 1.77D-09.
      6 vectors produced by pass102 Test12= 6.34D-14 1.00D-09 XBig12= 3.06D-15 1.64D-09.
      6 vectors produced by pass103 Test12= 6.34D-14 1.00D-09 XBig12= 7.03D-15 2.73D-09.
      6 vectors produced by pass104 Test12= 6.34D-14 1.00D-09 XBig12= 4.15D-15 2.02D-09.
      6 vectors produced by pass105 Test12= 6.34D-14 1.00D-09 XBig12= 3.35D-15 1.63D-09.
      6 vectors produced by pass106 Test12= 6.34D-14 1.00D-09 XBig12= 5.18D-15 2.26D-09.
      6 vectors produced by pass107 Test12= 6.34D-14 1.00D-09 XBig12= 6.52D-15 2.61D-09.
      6 vectors produced by pass108 Test12= 6.34D-14 1.00D-09 XBig12= 3.34D-15 1.90D-09.
      6 vectors produced by pass109 Test12= 6.34D-14 1.00D-09 XBig12= 5.28D-15 2.39D-09.
      6 vectors produced by pass110 Test12= 6.34D-14 1.00D-09 XBig12= 2.63D-15 1.54D-09.
      6 vectors produced by pass111 Test12= 6.34D-14 1.00D-09 XBig12= 4.25D-15 2.05D-09.
      6 vectors produced by pass112 Test12= 6.34D-14 1.00D-09 XBig12= 7.08D-15 2.71D-09.
      6 vectors produced by pass113 Test12= 6.34D-14 1.00D-09 XBig12= 2.70D-15 1.61D-09.
      6 vectors produced by pass114 Test12= 6.34D-14 1.00D-09 XBig12= 3.10D-15 1.66D-09.
      6 vectors produced by pass115 Test12= 6.34D-14 1.00D-09 XBig12= 4.17D-15 1.95D-09.
      6 vectors produced by pass116 Test12= 6.34D-14 1.00D-09 XBig12= 6.03D-15 2.38D-09.
      5 vectors produced by pass117 Test12= 6.34D-14 1.00D-09 XBig12= 2.14D-15 1.80D-09.
      5 vectors produced by pass118 Test12= 6.34D-14 1.00D-09 XBig12= 6.57D-15 2.49D-09.
      5 vectors produced by pass119 Test12= 6.34D-14 1.00D-09 XBig12= 3.08D-15 1.58D-09.
      5 vectors produced by pass120 Test12= 6.34D-14 1.00D-09 XBig12= 4.03D-15 2.10D-09.
      5 vectors produced by pass121 Test12= 6.34D-14 1.00D-09 XBig12= 2.30D-15 1.43D-09.
      5 vectors produced by pass122 Test12= 6.34D-14 1.00D-09 XBig12= 3.95D-15 2.00D-09.
      5 vectors produced by pass123 Test12= 6.34D-14 1.00D-09 XBig12= 2.88D-15 1.84D-09.
      5 vectors produced by pass124 Test12= 6.34D-14 1.00D-09 XBig12= 4.46D-15 2.10D-09.
      5 vectors produced by pass125 Test12= 6.34D-14 1.00D-09 XBig12= 3.83D-15 1.72D-09.
      5 vectors produced by pass126 Test12= 6.34D-14 1.00D-09 XBig12= 3.50D-15 1.74D-09.
      5 vectors produced by pass127 Test12= 6.34D-14 1.00D-09 XBig12= 4.82D-15 2.20D-09.
      5 vectors produced by pass128 Test12= 6.34D-14 1.00D-09 XBig12= 4.29D-15 2.08D-09.
      5 vectors produced by pass129 Test12= 6.34D-14 1.00D-09 XBig12= 5.58D-15 2.27D-09.
      5 vectors produced by pass130 Test12= 6.34D-14 1.00D-09 XBig12= 2.52D-15 1.60D-09.
      5 vectors produced by pass131 Test12= 6.34D-14 1.00D-09 XBig12= 2.59D-15 1.62D-09.
      5 vectors produced by pass132 Test12= 6.34D-14 1.00D-09 XBig12= 3.14D-15 1.73D-09.
      5 vectors produced by pass133 Test12= 6.34D-14 1.00D-09 XBig12= 1.93D-15 1.28D-09.
      5 vectors produced by pass134 Test12= 6.34D-14 1.00D-09 XBig12= 1.87D-15 1.38D-09.
      5 vectors produced by pass135 Test12= 6.34D-14 1.00D-09 XBig12= 5.80D-15 2.44D-09.
      5 vectors produced by pass136 Test12= 6.34D-14 1.00D-09 XBig12= 3.81D-15 2.10D-09.
      5 vectors produced by pass137 Test12= 6.34D-14 1.00D-09 XBig12= 4.57D-15 1.99D-09.
      5 vectors produced by pass138 Test12= 6.34D-14 1.00D-09 XBig12= 4.75D-15 2.18D-09.
      5 vectors produced by pass139 Test12= 6.34D-14 1.00D-09 XBig12= 2.77D-15 1.56D-09.
      5 vectors produced by pass140 Test12= 6.34D-14 1.00D-09 XBig12= 2.12D-15 1.66D-09.
      5 vectors produced by pass141 Test12= 6.34D-14 1.00D-09 XBig12= 3.77D-15 1.95D-09.
      5 vectors produced by pass142 Test12= 6.34D-14 1.00D-09 XBig12= 2.74D-15 1.59D-09.
      5 vectors produced by pass143 Test12= 6.34D-14 1.00D-09 XBig12= 3.11D-15 1.68D-09.
      5 vectors produced by pass144 Test12= 6.34D-14 1.00D-09 XBig12= 3.66D-15 1.74D-09.
      5 vectors produced by pass145 Test12= 6.34D-14 1.00D-09 XBig12= 2.27D-15 1.48D-09.
      5 vectors produced by pass146 Test12= 6.34D-14 1.00D-09 XBig12= 3.71D-15 2.08D-09.
      5 vectors produced by pass147 Test12= 6.34D-14 1.00D-09 XBig12= 4.20D-15 2.09D-09.
      5 vectors produced by pass148 Test12= 6.34D-14 1.00D-09 XBig12= 4.08D-15 1.76D-09.
      5 vectors produced by pass149 Test12= 6.34D-14 1.00D-09 XBig12= 3.59D-15 1.82D-09.
      5 vectors produced by pass150 Test12= 6.34D-14 1.00D-09 XBig12= 3.75D-15 2.08D-09.
      5 vectors produced by pass151 Test12= 6.34D-14 1.00D-09 XBig12= 2.86D-15 1.70D-09.
      5 vectors produced by pass152 Test12= 6.34D-14 1.00D-09 XBig12= 3.21D-15 2.32D-09.
      5 vectors produced by pass153 Test12= 6.34D-14 1.00D-09 XBig12= 2.41D-15 1.52D-09.
      5 vectors produced by pass154 Test12= 6.34D-14 1.00D-09 XBig12= 3.68D-15 2.06D-09.
      5 vectors produced by pass155 Test12= 6.34D-14 1.00D-09 XBig12= 3.92D-15 1.77D-09.
      5 vectors produced by pass156 Test12= 6.34D-14 1.00D-09 XBig12= 3.20D-15 1.58D-09.
      5 vectors produced by pass157 Test12= 6.34D-14 1.00D-09 XBig12= 3.47D-15 1.92D-09.
      4 vectors produced by pass158 Test12= 6.34D-14 1.00D-09 XBig12= 2.79D-15 1.75D-09.
      3 vectors produced by pass159 Test12= 6.34D-14 1.00D-09 XBig12= 1.70D-15 1.12D-09.
      3 vectors produced by pass160 Test12= 6.34D-14 1.00D-09 XBig12= 2.91D-15 1.69D-09.
      3 vectors produced by pass161 Test12= 6.34D-14 1.00D-09 XBig12= 2.27D-15 1.43D-09.
      3 vectors produced by pass162 Test12= 6.34D-14 1.00D-09 XBig12= 3.09D-15 1.69D-09.
      3 vectors produced by pass163 Test12= 6.34D-14 1.00D-09 XBig12= 4.29D-15 1.93D-09.
      3 vectors produced by pass164 Test12= 6.34D-14 1.00D-09 XBig12= 2.19D-15 1.46D-09.
      3 vectors produced by pass165 Test12= 6.34D-14 1.00D-09 XBig12= 3.06D-15 1.93D-09.
      3 vectors produced by pass166 Test12= 6.34D-14 1.00D-09 XBig12= 2.01D-15 1.51D-09.
      3 vectors produced by pass167 Test12= 6.34D-14 1.00D-09 XBig12= 3.60D-15 1.86D-09.
      3 vectors produced by pass168 Test12= 6.34D-14 1.00D-09 XBig12= 3.97D-15 1.92D-09.
      3 vectors produced by pass169 Test12= 6.34D-14 1.00D-09 XBig12= 4.33D-15 1.93D-09.
      3 vectors produced by pass170 Test12= 6.34D-14 1.00D-09 XBig12= 4.48D-15 2.32D-09.
      3 vectors produced by pass171 Test12= 6.34D-14 1.00D-09 XBig12= 2.60D-15 1.77D-09.
      3 vectors produced by pass172 Test12= 6.34D-14 1.00D-09 XBig12= 2.80D-15 1.73D-09.
      3 vectors produced by pass173 Test12= 6.34D-14 1.00D-09 XBig12= 3.64D-15 2.02D-09.
      3 vectors produced by pass174 Test12= 6.34D-14 1.00D-09 XBig12= 2.20D-15 1.47D-09.
      3 vectors produced by pass175 Test12= 6.34D-14 1.00D-09 XBig12= 1.50D-15 1.34D-09.
      3 vectors produced by pass176 Test12= 6.34D-14 1.00D-09 XBig12= 2.76D-15 1.73D-09.
      3 vectors produced by pass177 Test12= 6.34D-14 1.00D-09 XBig12= 3.46D-15 2.05D-09.
      3 vectors produced by pass178 Test12= 6.34D-14 1.00D-09 XBig12= 2.78D-15 1.59D-09.
      3 vectors produced by pass179 Test12= 6.34D-14 1.00D-09 XBig12= 3.74D-15 1.69D-09.
      3 vectors produced by pass180 Test12= 6.34D-14 1.00D-09 XBig12= 2.20D-15 1.67D-09.
      3 vectors produced by pass181 Test12= 6.34D-14 1.00D-09 XBig12= 2.14D-15 1.59D-09.
      3 vectors produced by pass182 Test12= 6.34D-14 1.00D-09 XBig12= 3.33D-15 1.75D-09.
      3 vectors produced by pass183 Test12= 6.34D-14 1.00D-09 XBig12= 1.89D-15 1.25D-09.
      3 vectors produced by pass184 Test12= 6.34D-14 1.00D-09 XBig12= 3.68D-15 1.88D-09.
      3 vectors produced by pass185 Test12= 6.34D-14 1.00D-09 XBig12= 2.90D-15 1.70D-09.
      3 vectors produced by pass186 Test12= 6.34D-14 1.00D-09 XBig12= 2.40D-15 1.65D-09.
      3 vectors produced by pass187 Test12= 6.34D-14 1.00D-09 XBig12= 3.23D-15 1.85D-09.
      3 vectors produced by pass188 Test12= 6.34D-14 1.00D-09 XBig12= 2.35D-15 1.35D-09.
      3 vectors produced by pass189 Test12= 6.34D-14 1.00D-09 XBig12= 2.42D-15 1.45D-09.
      3 vectors produced by pass190 Test12= 6.34D-14 1.00D-09 XBig12= 3.96D-15 1.93D-09.
      3 vectors produced by pass191 Test12= 6.34D-14 1.00D-09 XBig12= 1.42D-15 1.14D-09.
      3 vectors produced by pass192 Test12= 6.34D-14 1.00D-09 XBig12= 3.24D-15 1.86D-09.
      3 vectors produced by pass193 Test12= 6.34D-14 1.00D-09 XBig12= 4.14D-15 1.84D-09.
      3 vectors produced by pass194 Test12= 6.34D-14 1.00D-09 XBig12= 2.54D-15 1.47D-09.
      2 vectors produced by pass195 Test12= 6.34D-14 1.00D-09 XBig12= 1.90D-15 1.37D-09.
 InvSVY:  IOpt=1 It=  1 EMax= 2.13D-14
 Solved reduced A of dimension  4382 with   198 vectors.
 Isotropic polarizability for W=    0.000000      343.68 Bohr**3.
 End of Minotr F.D. properties file   721 does not exist.
 End of Minotr F.D. properties file   722 does not exist.
 End of Minotr F.D. properties file   788 does not exist.

 **********************************************************************

            Population analysis using the SCF density.

 **********************************************************************

 Orbital symmetries:
       Occupied  (A) (A) (A) (A) (A) (A) (A) (A) (A) (A) (A) (A)
                 (A) (A) (A) (A) (A) (A) (A) (A) (A) (A) (A) (A)
                 (A) (A) (A) (A) (A) (A) (A) (A) (A) (A) (A) (A)
                 (A) (A) (A) (A) (A) (A) (A) (A) (A) (A) (A) (A)
                 (A) (A) (A) (A) (A) (A) (A) (A) (A) (A) (A) (A)
                 (A) (A) (A) (A) (A) (A) (A) (A) (A) (A) (A) (A)
                 (A) (A) (A) (A) (A) (A) (A) (A) (A) (A) (A) (A)
                 (A) (A) (A) (A) (A) (A) (A) (A) (A) (A) (A) (A)
                 (A) (A) (A) (A) (A) (A) (A) (A) (A) (A) (A) (A)
                 (A) (A) (A) (A) (A) (A) (A) (A) (A) (A) (A) (A)
                 (A) (A) (A) (A) (A)
       Virtual   (A) (A) (A) (A) (A) (A) (A) (A) (A) (A) (A) (A)
                 (A) (A) (A) (A) (A) (A) (A) (A) (A) (A) (A) (A)
                 (A) (A) (A) (A) (A) (A) (A) (A) (A) (A) (A) (A)
                 (A) (A) (A) (A) (A) (A) (A) (A) (A) (A) (A) (A)
                 (A) (A) (A) (A) (A) (A) (A) (A) (A) (A) (A) (A)
                 (A) (A) (A) (A) (A) (A) (A) (A) (A) (A) (A) (A)
                 (A) (A) (A) (A) (A) (A) (A) (A) (A) (A) (A) (A)
                 (A) (A) (A) (A) (A) (A) (A) (A) (A) (A) (A) (A)
                 (A) (A) (A) (A) (A) (A) (A) (A) (A) (A) (A) (A)
                 (A) (A) (A) (A) (A) (A) (A) (A) (A) (A) (A) (A)
                 (A) (A) (A) (A) (A) (A) (A) (A) (A) (A) (A) (A)
                 (A) (A) (A) (A) (A) (A) (A) (A) (A) (A) (A) (A)
                 (A) (A) (A) (A) (A) (A) (A) (A) (A) (A) (A) (A)
                 (A) (A) (A) (A) (A) (A) (A) (A) (A) (A) (A) (A)
                 (A) (A) (A) (A) (A) (A) (A) (A) (A) (A) (A) (A)
                 (A) (A) (A) (A) (A) (A) (A) (A) (A) (A) (A) (A)
                 (A) (A) (A) (A) (A) (A) (A) (A) (A) (A) (A) (A)
                 (A) (A) (A) (A) (A) (A) (A) (A) (A) (A) (A) (A)
                 (A) (A) (A) (A) (A) (A) (A) (A) (A) (A) (A) (A)
                 (A) (A) (A) (A) (A) (A) (A) (A) (A) (A) (A) (A)
                 (A) (A) (A) (A) (A) (A) (A) (A) (A) (A) (A) (A)
                 (A) (A) (A) (A) (A) (A) (A) (A) (A) (A) (A) (A)
                 (A) (A) (A) (A) (A) (A) (A) (A) (A) (A) (A) (A)
                 (A) (A) (A) (A) (A) (A) (A) (A) (A) (A) (A) (A)
                 (A) (A) (A) (A) (A) (A) (A) (A) (A) (A) (A) (A)
                 (A) (A) (A) (A) (A) (A) (A) (A) (A) (A) (A) (A)
                 (A) (A) (A) (A) (A) (A) (A) (A) (A) (A) (A) (A)
                 (A) (A) (A) (A) (A) (A) (A) (A) (A) (A) (A) (A)
                 (A) (A) (A) (A) (A) (A) (A) (A) (A) (A) (A) (A)
                 (A) (A) (A) (A) (A) (A) (A) (A) (A) (A) (A) (A)
                 (A) (A) (A) (A) (A) (A) (A) (A) (A) (A) (A) (A)
                 (A) (A) (A) (A) (A) (A) (A) (A) (A) (A) (A) (A)
                 (A) (A) (A) (A) (A) (A) (A) (A) (A) (A) (A) (A)
                 (A) (A) (A) (A) (A) (A) (A) (A) (A) (A) (A) (A)
                 (A) (A) (A) (A) (A) (A) (A) (A) (A) (A) (A) (A)
                 (A) (A) (A) (A) (A) (A) (A) (A) (A) (A) (A) (A)
                 (A) (A) (A) (A) (A) (A) (A) (A) (A) (A) (A) (A)
                 (A) (A) (A) (A) (A) (A) (A) (A) (A) (A) (A) (A)
                 (A) (A) (A) (A) (A) (A) (A) (A) (A) (A) (A) (A)
                 (A) (A) (A) (A) (A) (A) (A) (A) (A) (A) (A) (A)
                 (A) (A) (A) (A) (A) (A) (A) (A) (A) (A) (A) (A)
                 (A) (A) (A) (A) (A) (A) (A) (A) (A) (A) (A) (A)
                 (A) (A) (A)
 The electronic state is 1-A.
 Alpha  occ. eigenvalues -- -101.83309 -19.40779 -19.34841 -19.32396 -14.57195
 Alpha  occ. eigenvalues --  -14.54081 -10.48947 -10.48164 -10.44545 -10.44495
 Alpha  occ. eigenvalues --  -10.42951 -10.42458 -10.42370 -10.41691 -10.41141
 Alpha  occ. eigenvalues --  -10.40771 -10.40532 -10.40096 -10.39931 -10.37960
 Alpha  occ. eigenvalues --  -10.37066 -10.36812 -10.36561 -10.36047 -10.35711
 Alpha  occ. eigenvalues --  -10.35447 -10.35200 -10.33444 -10.33294 -10.33207
 Alpha  occ. eigenvalues --   -9.70580  -7.41844  -7.40830  -7.40729  -3.45959
 Alpha  occ. eigenvalues --   -2.20264  -2.20079  -2.17178  -1.25979  -1.17178
 Alpha  occ. eigenvalues --   -1.16270  -1.12440  -1.06288  -1.00508  -0.98345
 Alpha  occ. eigenvalues --   -0.96225  -0.96117  -0.95082  -0.91573  -0.90314
 Alpha  occ. eigenvalues --   -0.87545  -0.87074  -0.85443  -0.82521  -0.80609
 Alpha  occ. eigenvalues --   -0.80519  -0.79722  -0.79113  -0.78539  -0.77477
 Alpha  occ. eigenvalues --   -0.75772  -0.72550  -0.71629  -0.71274  -0.68049
 Alpha  occ. eigenvalues --   -0.67507  -0.66273  -0.65390  -0.64592  -0.63853
 Alpha  occ. eigenvalues --   -0.62766  -0.61807  -0.61338  -0.60481  -0.59688
 Alpha  occ. eigenvalues --   -0.59249  -0.58682  -0.58169  -0.58161  -0.56728
 Alpha  occ. eigenvalues --   -0.56642  -0.56462  -0.56050  -0.55631  -0.55090
 Alpha  occ. eigenvalues --   -0.54806  -0.54465  -0.53409  -0.53005  -0.52796
 Alpha  occ. eigenvalues --   -0.52209  -0.52160  -0.52043  -0.51716  -0.51234
 Alpha  occ. eigenvalues --   -0.50705  -0.50540  -0.50376  -0.49386  -0.48925
 Alpha  occ. eigenvalues --   -0.48655  -0.48471  -0.47866  -0.47414  -0.47189
 Alpha  occ. eigenvalues --   -0.47096  -0.46680  -0.46497  -0.46021  -0.45082
 Alpha  occ. eigenvalues --   -0.44526  -0.44245  -0.43722  -0.43409  -0.43377
 Alpha  occ. eigenvalues --   -0.43147  -0.41211  -0.40719  -0.39818  -0.39193
 Alpha  occ. eigenvalues --   -0.38949  -0.37966  -0.37199  -0.35841  -0.35793
 Alpha virt. eigenvalues --   -0.19376  -0.18936  -0.17190  -0.15462  -0.12551
 Alpha virt. eigenvalues --   -0.12204  -0.11536  -0.11003  -0.10192  -0.10154
 Alpha virt. eigenvalues --   -0.09878  -0.09731  -0.09260  -0.09012  -0.08756
 Alpha virt. eigenvalues --   -0.08346  -0.08186  -0.08004  -0.07465  -0.07438
 Alpha virt. eigenvalues --   -0.07246  -0.06898  -0.06466  -0.06140  -0.05959
 Alpha virt. eigenvalues --   -0.05835  -0.05350  -0.05266  -0.04917  -0.04661
 Alpha virt. eigenvalues --   -0.04438  -0.04373  -0.04021  -0.03677  -0.03435
 Alpha virt. eigenvalues --   -0.03239  -0.03077  -0.02860  -0.02235  -0.02128
 Alpha virt. eigenvalues --   -0.02084  -0.01904  -0.01487  -0.01209  -0.00950
 Alpha virt. eigenvalues --   -0.00764  -0.00497  -0.00363   0.00164   0.00528
 Alpha virt. eigenvalues --    0.00737   0.00796   0.01082   0.01366   0.01539
 Alpha virt. eigenvalues --    0.01897   0.02146   0.02223   0.02680   0.02935
 Alpha virt. eigenvalues --    0.03157   0.03288   0.03428   0.03836   0.03987
 Alpha virt. eigenvalues --    0.04255   0.04359   0.04531   0.04795   0.05029
 Alpha virt. eigenvalues --    0.05197   0.05524   0.05664   0.05815   0.05946
 Alpha virt. eigenvalues --    0.06144   0.06605   0.06827   0.07037   0.07244
 Alpha virt. eigenvalues --    0.07282   0.07646   0.07818   0.08029   0.08186
 Alpha virt. eigenvalues --    0.08261   0.08440   0.08656   0.08937   0.09242
 Alpha virt. eigenvalues --    0.09399   0.09830   0.09981   0.10064   0.10429
 Alpha virt. eigenvalues --    0.10545   0.10678   0.10850   0.11215   0.11306
 Alpha virt. eigenvalues --    0.11495   0.11684   0.11873   0.12126   0.12250
 Alpha virt. eigenvalues --    0.12392   0.12519   0.12802   0.12913   0.12983
 Alpha virt. eigenvalues --    0.13256   0.13504   0.13882   0.14251   0.14372
 Alpha virt. eigenvalues --    0.14582   0.14979   0.15187   0.15366   0.15611
 Alpha virt. eigenvalues --    0.15725   0.15832   0.16157   0.16402   0.16478
 Alpha virt. eigenvalues --    0.16821   0.17079   0.17130   0.17490   0.17757
 Alpha virt. eigenvalues --    0.17807   0.18338   0.18664   0.19027   0.19217
 Alpha virt. eigenvalues --    0.19306   0.19477   0.19938   0.20176   0.20213
 Alpha virt. eigenvalues --    0.20360   0.20465   0.20689   0.21268   0.21849
 Alpha virt. eigenvalues --    0.22105   0.22250   0.22341   0.22597   0.22991
 Alpha virt. eigenvalues --    0.23241   0.23519   0.23539   0.24147   0.24259
 Alpha virt. eigenvalues --    0.24673   0.25014   0.25269   0.25470   0.25951
 Alpha virt. eigenvalues --    0.26334   0.26517   0.26785   0.27633   0.27859
 Alpha virt. eigenvalues --    0.28271   0.28587   0.28893   0.29135   0.29548
 Alpha virt. eigenvalues --    0.29992   0.30205   0.30886   0.31593   0.31877
 Alpha virt. eigenvalues --    0.32219   0.32505   0.33132   0.33395   0.34041
 Alpha virt. eigenvalues --    0.34442   0.35244   0.35596   0.36165   0.36677
 Alpha virt. eigenvalues --    0.37140   0.37715   0.38517   0.38784   0.40191
 Alpha virt. eigenvalues --    0.41762   0.42820   0.43860   0.44636   0.45219
 Alpha virt. eigenvalues --    0.46992   0.49542   0.50316   0.52393   0.54998
 Alpha virt. eigenvalues --    0.55617   0.56572   0.56813   0.56961   0.57736
 Alpha virt. eigenvalues --    0.58322   0.58750   0.59215   0.59739   0.60205
 Alpha virt. eigenvalues --    0.60573   0.61123   0.61868   0.61915   0.62577
 Alpha virt. eigenvalues --    0.62859   0.63371   0.63422   0.63727   0.64419
 Alpha virt. eigenvalues --    0.64448   0.65030   0.65230   0.65666   0.66346
 Alpha virt. eigenvalues --    0.66447   0.66921   0.67177   0.67938   0.68401
 Alpha virt. eigenvalues --    0.68690   0.69057   0.69428   0.70389   0.70750
 Alpha virt. eigenvalues --    0.71347   0.71681   0.71813   0.72474   0.73216
 Alpha virt. eigenvalues --    0.73443   0.74030   0.74522   0.74853   0.75644
 Alpha virt. eigenvalues --    0.76034   0.77080   0.77389   0.77825   0.78009
 Alpha virt. eigenvalues --    0.78818   0.79079   0.79599   0.80134   0.80520
 Alpha virt. eigenvalues --    0.81283   0.81335   0.81754   0.82110   0.82899
 Alpha virt. eigenvalues --    0.83288   0.83695   0.84275   0.84772   0.85603
 Alpha virt. eigenvalues --    0.85898   0.86242   0.86953   0.87254   0.87287
 Alpha virt. eigenvalues --    0.87904   0.88624   0.88892   0.90056   0.90187
 Alpha virt. eigenvalues --    0.91015   0.91632   0.92196   0.92633   0.92930
 Alpha virt. eigenvalues --    0.93407   0.94038   0.94745   0.94936   0.95367
 Alpha virt. eigenvalues --    0.96007   0.96699   0.97502   0.98280   0.98956
 Alpha virt. eigenvalues --    0.99256   0.99436   1.00352   1.00591   1.01205
 Alpha virt. eigenvalues --    1.01781   1.02354   1.03168   1.03488   1.03724
 Alpha virt. eigenvalues --    1.04767   1.05349   1.05563   1.05787   1.06062
 Alpha virt. eigenvalues --    1.06955   1.07797   1.07886   1.08251   1.09271
 Alpha virt. eigenvalues --    1.09442   1.10177   1.10543   1.12430   1.12629
 Alpha virt. eigenvalues --    1.13673   1.14001   1.15202   1.16020   1.16310
 Alpha virt. eigenvalues --    1.17217   1.17522   1.17928   1.18968   1.20719
 Alpha virt. eigenvalues --    1.21806   1.22465   1.23601   1.24046   1.24573
 Alpha virt. eigenvalues --    1.25643   1.26417   1.27280   1.27457   1.27737
 Alpha virt. eigenvalues --    1.28807   1.29385   1.29924   1.30778   1.31511
 Alpha virt. eigenvalues --    1.32986   1.34140   1.34286   1.36095   1.36418
 Alpha virt. eigenvalues --    1.37528   1.38133   1.38314   1.39284   1.39399
 Alpha virt. eigenvalues --    1.40032   1.41896   1.42324   1.42944   1.43138
 Alpha virt. eigenvalues --    1.45202   1.45901   1.47060   1.49342   1.50958
 Alpha virt. eigenvalues --    1.51302   1.52210   1.54488   1.55286   1.55857
 Alpha virt. eigenvalues --    1.56590   1.58110   1.60194   1.60695   1.61752
 Alpha virt. eigenvalues --    1.62243   1.62762   1.63775   1.64157   1.65404
 Alpha virt. eigenvalues --    1.66711   1.67081   1.67934   1.69368   1.70547
 Alpha virt. eigenvalues --    1.70919   1.71200   1.72541   1.73864   1.74000
 Alpha virt. eigenvalues --    1.75340   1.75739   1.76054   1.76545   1.77388
 Alpha virt. eigenvalues --    1.78246   1.79236   1.79406   1.80729   1.81053
 Alpha virt. eigenvalues --    1.82079   1.82355   1.83257   1.83847   1.84268
 Alpha virt. eigenvalues --    1.84915   1.85383   1.86486   1.87432   1.88008
 Alpha virt. eigenvalues --    1.88986   1.89779   1.90933   1.91713   1.92983
 Alpha virt. eigenvalues --    1.93134   1.94105   1.94173   1.95276   1.95316
 Alpha virt. eigenvalues --    1.96702   1.96901   1.97914   1.99297   2.00273
 Alpha virt. eigenvalues --    2.00506   2.01488   2.02050   2.03089   2.03197
 Alpha virt. eigenvalues --    2.04289   2.04547   2.05598   2.05890   2.07645
 Alpha virt. eigenvalues --    2.08634   2.08998   2.09180   2.10240   2.11681
 Alpha virt. eigenvalues --    2.11952   2.12458   2.12798   2.13678   2.14266
 Alpha virt. eigenvalues --    2.14544   2.14857   2.15029   2.15396   2.16254
 Alpha virt. eigenvalues --    2.17350   2.18041   2.19278   2.19903   2.20312
 Alpha virt. eigenvalues --    2.21025   2.22136   2.22520   2.24586   2.25688
 Alpha virt. eigenvalues --    2.27595   2.28452   2.30005   2.30466   2.31563
 Alpha virt. eigenvalues --    2.33414   2.34146   2.37335   2.38300   2.39418
 Alpha virt. eigenvalues --    2.40064   2.40800   2.43061   2.44187   2.44943
 Alpha virt. eigenvalues --    2.46015   2.46626   2.47439   2.48954   2.49710
 Alpha virt. eigenvalues --    2.50574   2.51327   2.53389   2.53778   2.55636
 Alpha virt. eigenvalues --    2.57839   2.59265   2.60325   2.63953   2.64327
 Alpha virt. eigenvalues --    2.67632   2.69381   2.70423   2.71284   2.72975
 Alpha virt. eigenvalues --    2.73600   2.75122   2.76381   2.76633   2.80717
 Alpha virt. eigenvalues --    2.81052   2.83358   2.87302   2.88439   2.93974
 Alpha virt. eigenvalues --    2.96155   3.00601   3.04193   3.13041   3.17280
 Alpha virt. eigenvalues --    3.27441  21.22996
          Condensed to atoms (all electrons):
 Mulliken charges:
               1
     1  C   -0.057568
     2  C   -0.498272
     3  C   -0.193463
     4  C   -0.115853
     5  H    0.250811
     6  C   -0.256150
     7  N    0.154691
     8  H    0.247184
     9  H    0.259469
    10  Cl   0.428955
    11  C   -0.447281
    12  O   -0.193956
    13  N    0.280417
    14  C   -0.176306
    15  H    0.237350
    16  H    0.252296
    17  C   -0.300611
    18  C   -0.621003
    19  H    0.230689
    20  Pd  -0.324012
    21  C   -0.412104
    22  C   -0.388118
    23  C    0.444019
    24  C   -0.529629
    25  C   -0.372177
    26  H    0.230715
    27  H    0.234478
    28  C   -0.243092
    29  H    0.253748
    30  H    0.233069
    31  C   -0.005915
    32  C   -0.456321
    33  H    0.249122
    34  C   -0.129991
    35  H    0.187190
    36  H    0.220418
    37  C    0.042818
    38  O   -0.287985
    39  H    0.260082
    40  H    0.220336
    41  H    0.201251
    42  C   -0.673830
    43  H    0.248827
    44  H    0.249768
    45  H    0.241593
    46  O   -0.639418
    47  H    0.529178
    48  H    0.252469
    49  H    0.240414
    50  C   -0.345642
    51  H    0.250790
    52  H    0.216780
    53  H    0.260210
    54  C   -0.307932
    55  H    0.237255
    56  H    0.234420
    57  H    0.228813
    58  C   -0.294721
    59  H    0.230797
    60  H    0.238985
    61  H    0.220266
    62  C   -0.394756
    63  H    0.235832
    64  H    0.203043
    65  H    0.227558
 Sum of Mulliken charges =   1.00000
 Mulliken charges with hydrogens summed into heavy atoms:
               1
     1  C   -0.057568
     2  C   -0.238803
     3  C    0.053722
     4  C    0.134958
     6  C   -0.256150
     7  N    0.154691
    10  Cl   0.428955
    11  C   -0.447281
    12  O   -0.193956
    13  N    0.280417
    14  C    0.313340
    17  C   -0.069922
    18  C   -0.621003
    20  Pd  -0.324012
    21  C    0.097099
    22  C    0.062933
    23  C    0.879749
    24  C   -0.529629
    25  C   -0.372177
    28  C    0.496194
    31  C   -0.005915
    32  C   -0.215907
    34  C    0.277617
    37  C    0.042818
    38  O   -0.287985
    42  C    0.066359
    46  O   -0.110240
    50  C    0.382139
    54  C    0.392557
    58  C    0.395326
    62  C    0.271676
 APT charges:
               1
     1  C    0.113852
     2  C   -0.165335
     3  C    0.197449
     4  C   -0.160332
     5  H    0.085863
     6  C    0.524959
     7  N   -0.472446
     8  H    0.066441
     9  H    0.100018
    10  Cl  -0.255587
    11  C    0.906143
    12  O   -0.731403
    13  N   -0.717375
    14  C    0.303630
    15  H    0.030640
    16  H    0.015163
    17  C    0.201526
    18  C    0.104467
    19  H   -0.009730
    20  Pd   0.182229
    21  C   -0.047139
    22  C    0.086763
    23  C   -0.047609
    24  C    0.356774
    25  C   -0.454150
    26  H   -0.016119
    27  H    0.012214
    28  C   -0.131466
    29  H    0.073739
    30  H    0.024211
    31  C    0.355486
    32  C    0.176217
    33  H    0.010276
    34  C    0.408846
    35  H   -0.037032
    36  H   -0.078262
    37  C    1.019724
    38  O   -0.805441
    39  H    0.022779
    40  H   -0.014623
    41  H   -0.002862
    42  C   -0.047586
    43  H    0.022328
    44  H    0.029749
    45  H    0.036126
    46  O   -0.607299
    47  H    0.291461
    48  H    0.001759
    49  H   -0.000620
    50  C   -0.018843
    51  H    0.033829
    52  H    0.005271
    53  H    0.029178
    54  C   -0.013341
    55  H    0.006519
    56  H   -0.001016
    57  H    0.005097
    58  C    0.007515
    59  H    0.000088
    60  H    0.000805
    61  H    0.005476
    62  C    0.005229
    63  H   -0.007431
    64  H   -0.020061
    65  H    0.003269
 Sum of APT charges =   1.00000
 APT charges with hydrogens summed into heavy atoms:
               1
     1  C    0.113852
     2  C   -0.065317
     3  C    0.263890
     4  C   -0.074469
     6  C    0.524959
     7  N   -0.472446
    10  Cl  -0.255587
    11  C    0.906143
    12  O   -0.731403
    13  N   -0.717375
    14  C    0.349434
    17  C    0.191796
    18  C    0.104467
    20  Pd   0.182229
    21  C   -0.014084
    22  C    0.056020
    23  C   -0.038257
    24  C    0.356774
    25  C   -0.454150
    28  C   -0.031757
    31  C    0.355486
    32  C    0.175597
    34  C    0.293551
    37  C    1.019724
    38  O   -0.805441
    42  C    0.040617
    46  O   -0.315837
    50  C    0.049436
    54  C   -0.002742
    58  C    0.013884
    62  C   -0.018994
 Electronic spatial extent (au):  <R**2>=          12642.2448
 Charge=              1.0000 electrons
 Dipole moment (field-independent basis, Debye):
    X=              3.3737    Y=             -1.6622    Z=              0.5005  Tot=              3.7941
 Quadrupole moment (field-independent basis, Debye-Ang):
   XX=           -167.8225   YY=           -148.4519   ZZ=           -189.6286
   XY=              6.2042   XZ=            -17.5087   YZ=            -10.1531
 Traceless Quadrupole moment (field-independent basis, Debye-Ang):
   XX=              0.8119   YY=             20.1824   ZZ=            -20.9943
   XY=              6.2042   XZ=            -17.5087   YZ=            -10.1531
 Octapole moment (field-independent basis, Debye-Ang**2):
  XXX=            163.7674  YYY=            -69.2167  ZZZ=             48.5714  XYY=             35.2002
  XXY=             25.3808  XXZ=             36.5643  XZZ=             54.1493  YZZ=            -27.8128
  YYZ=             -0.5322  XYZ=            -49.0594
 Hexadecapole moment (field-independent basis, Debye-Ang**3):
 XXXX=          -7615.3632 YYYY=          -5578.9062 ZZZZ=          -2279.2699 XXXY=            297.8182
 XXXZ=           -281.2498 YYYX=            -97.8665 YYYZ=           -167.1494 ZZZX=             71.7033
 ZZZY=           -118.9386 XXYY=          -1962.9121 XXZZ=          -1728.0510 YYZZ=          -1209.8534
 XXYZ=           -182.2187 YYXZ=            -27.9289 ZZXY=            -69.0441
 N-N= 4.003093818327D+03 E-N=-1.229337548317D+04  KE= 1.766383223642D+03
  Exact polarizability: 411.664  -9.266 339.624   6.318 -28.698 279.766
 Approx polarizability: 593.231 -31.311 501.350  40.641 -71.315 457.042
   1 Symmetry operations used in ECPInt.
 ECPInt:  NShTT=   25878 NPrTT=  135610 LenC2=   23235 LenP2D=   72462.
 LDataN:  DoStor=T MaxTD1= 7 Len=  274
 Calling FoFJK, ICntrl=    100127 FMM=F ISym2X=0 I1Cent= 0 IOpClX= 0 NMat=1 NMatS=1 NMatT=0.
 Defaulting to unpruned grid for atomic number  46.
 Defaulting to unpruned grid for atomic number  46.
 Defaulting to unpruned grid for atomic number  46.
 Defaulting to unpruned grid for atomic number  46.
 Defaulting to unpruned grid for atomic number  46.
 Defaulting to unpruned grid for atomic number  46.
 Defaulting to unpruned grid for atomic number  46.
 Defaulting to unpruned grid for atomic number  46.
 Defaulting to unpruned grid for atomic number  46.
 Defaulting to unpruned grid for atomic number  46.
 Defaulting to unpruned grid for atomic number  46.
 Defaulting to unpruned grid for atomic number  46.
 Defaulting to unpruned grid for atomic number  46.
 Defaulting to unpruned grid for atomic number  46.
 Defaulting to unpruned grid for atomic number  46.
 Defaulting to unpruned grid for atomic number  46.
 Defaulting to unpruned grid for atomic number  46.
 Defaulting to unpruned grid for atomic number  46.
 Defaulting to unpruned grid for atomic number  46.
 Defaulting to unpruned grid for atomic number  46.
 Defaulting to unpruned grid for atomic number  46.
 Defaulting to unpruned grid for atomic number  46.
 Defaulting to unpruned grid for atomic number  46.
 Defaulting to unpruned grid for atomic number  46.
 Defaulting to unpruned grid for atomic number  46.
 Defaulting to unpruned grid for atomic number  46.
 Defaulting to unpruned grid for atomic number  46.
 Defaulting to unpruned grid for atomic number  46.
 Full mass-weighted force constant matrix:
 Low frequencies --- -254.2306   -5.4295   -0.0026   -0.0020   -0.0018    5.6290
 Low frequencies ---   11.4126   24.7657   36.6634
 ******    1 imaginary frequencies (negative Signs) ****** 
 Diagonal vibrational polarizability:
       81.5885251     125.3188555      84.0681361
 Harmonic frequencies (cm**-1), IR intensities (KM/Mole), Raman scattering
 activities (A**4/AMU), depolarization ratios for plane and unpolarized
 incident light, reduced masses (AMU), force constants (mDyne/A),
 and normal coordinates:
                           1         2         3         4         5
                           A         A         A         A         A
       Frequencies ---  -254.2266   24.5547   36.5044   40.4950   46.8311
    Reduced masses ---     7.9064    5.4113    5.6122    7.6572    6.1432
   Force constants ---     0.3011    0.0019    0.0044    0.0074    0.0079
    IR Intensities ---     4.5665    0.5912    1.1056    4.1610    0.4812
 Coord Atom Element:
   1     1     6          0.01088   0.04528   0.00620  -0.04105   0.00890
   2     1     6         -0.00317   0.02078  -0.04501  -0.05359  -0.00175
   3     1     6         -0.00173   0.02775  -0.04697  -0.01697   0.04367
   1     2     6          0.00482   0.07147   0.02056  -0.04988  -0.00555
   2     2     6          0.00045   0.04588  -0.15008  -0.09160  -0.01940
   3     2     6         -0.00198   0.08274  -0.16043  -0.07049   0.00780
   1     3     6          0.00530   0.07134   0.01819  -0.04899  -0.00652
   2     3     6          0.00311   0.05115  -0.20405  -0.08340  -0.03294
   3     3     6         -0.00145   0.13424  -0.18902  -0.07025  -0.03672
   1     4     6          0.00799   0.04335   0.00527  -0.03842   0.00827
   2     4     6          0.00438   0.02708  -0.12993  -0.03103  -0.02955
   3     4     6         -0.00213   0.12686  -0.09028  -0.01549  -0.04467
   1     5     1          0.00826   0.04033   0.00484  -0.03761   0.01021
   2     5     1          0.00666   0.02601  -0.14910  -0.01480  -0.04192
   3     5     1         -0.00360   0.16471  -0.09961  -0.01207  -0.08006
   1     6     6          0.00894   0.01847  -0.00808  -0.02971   0.02259
   2     6     6          0.00471   0.00031  -0.01986   0.00253  -0.01051
   3     6     6         -0.00062   0.06729   0.02675   0.03393  -0.00585
   1     7     7          0.01157   0.01962  -0.00797  -0.02907   0.02019
   2     7     7          0.00186  -0.00123   0.00861  -0.01169   0.00309
   3     7     7          0.00036   0.01897   0.03739   0.03005   0.04018
   1     8     1          0.00375   0.09093   0.02998  -0.05512  -0.01794
   2     8     1          0.00449   0.07179  -0.29276  -0.11289  -0.04781
   3     8     1         -0.00135   0.17868  -0.28265  -0.11163  -0.06597
   1     9     1          0.00342   0.09047   0.03599  -0.05616  -0.01665
   2     9     1         -0.00062   0.06160  -0.18821  -0.12593  -0.02444
   3     9     1         -0.00205   0.08608  -0.22680  -0.11105   0.01168
   1    10    17          0.00575  -0.01721  -0.03155  -0.03143   0.05185
   2    10    17          0.00633  -0.03596   0.09857   0.06551  -0.01253
   3    10    17          0.00409   0.05480   0.16517   0.09763  -0.03008
   1    11     6          0.01283   0.04053   0.01223  -0.04179   0.01131
   2    11     6         -0.01230   0.01944   0.00630  -0.06107   0.00880
   3    11     6          0.00077  -0.01904  -0.01775  -0.00968   0.05898
   1    12     8          0.00857   0.06032   0.03082  -0.06313   0.01872
   2    12     8         -0.01290   0.01971   0.02925  -0.11316  -0.00566
   3    12     8          0.01237  -0.03837   0.00042  -0.06829   0.02830
   1    13     7          0.01725   0.01728   0.00324  -0.02046   0.00266
   2    13     7         -0.02291   0.02103   0.02145  -0.02673   0.02896
   3    13     7          0.00110  -0.03846  -0.01201   0.04411   0.07235
   1    14     6          0.00746   0.05131   0.03250  -0.05895   0.01604
   2    14     6         -0.01853   0.02231   0.08212  -0.11274  -0.00010
   3    14     6          0.00776  -0.08084   0.03752  -0.04316   0.00677
   1    15     1          0.00525   0.04611   0.08630  -0.06501   0.00970
   2    15     1         -0.02004   0.02244   0.09206  -0.10452   0.00408
   3    15     1          0.00927  -0.08988   0.08514  -0.08654  -0.02085
   1    16     1          0.01305   0.07757  -0.01254  -0.06849   0.03342
   2    16     1         -0.01915   0.02804   0.13875  -0.16099  -0.01841
   3    16     1          0.00583  -0.09724   0.03899  -0.01794   0.00489
   1    17     6          0.00829   0.01476   0.01691  -0.03665  -0.00385
   2    17     6         -0.01698   0.01993   0.04347  -0.05676   0.02406
   3    17     6          0.00826  -0.08317   0.00710   0.00590   0.02742
   1    18     6          0.00788  -0.03417   0.03092  -0.07145  -0.05193
   2    18     6         -0.00475   0.02373  -0.00058  -0.00260   0.05397
   3    18     6          0.00211  -0.09584   0.02905  -0.02774   0.00314
   1    19     1          0.01209   0.02399   0.00295  -0.01244   0.00775
   2    19     1         -0.01634   0.01699   0.06074  -0.08442   0.01307
   3    19     1          0.00735  -0.10586  -0.01679   0.03492   0.02444
   1    20    46         -0.05895   0.00629  -0.01671   0.02284  -0.01119
   2    20    46         -0.04244   0.01057   0.02624  -0.02643   0.01256
   3    20    46         -0.02944  -0.03060   0.01350   0.02160   0.06813
   1    21     6         -0.03553   0.00349   0.00133   0.01844  -0.01337
   2    21     6         -0.00829  -0.06630  -0.08958   0.14104   0.00053
   3    21     6         -0.01159   0.16267   0.00425   0.02015  -0.07144
   1    22     6          0.00562   0.06147   0.03358  -0.01677  -0.03134
   2    22     6          0.03261  -0.04620  -0.08345   0.08040   0.03710
   3    22     6         -0.00769   0.12803  -0.02106  -0.01659  -0.00912
   1    23     6         -0.05799   0.06550   0.01888   0.01635  -0.04834
   2    23     6          0.12659  -0.01952  -0.05535   0.01059   0.05799
   3    23     6          0.06975   0.06463  -0.01947  -0.00883   0.01625
   1    24     6         -0.16681  -0.00141  -0.00086   0.02027  -0.01532
   2    24     6          0.45169  -0.00094  -0.00666   0.00791   0.04564
   3    24     6          0.14623   0.03119  -0.01598  -0.00574   0.03273
   1    25     6         -0.07840  -0.06223  -0.02269   0.03252   0.01879
   2    25     6          0.10079  -0.00570   0.00879   0.04292   0.02225
   3    25     6          0.01206   0.06464   0.00170   0.00173   0.00417
   1    26     1          0.00329   0.10986   0.04944  -0.02290  -0.05961
   2    26     1         -0.02520  -0.05402  -0.11408   0.07634   0.06286
   3    26     1         -0.02849   0.15401  -0.02208  -0.02174  -0.01698
   1    27     1         -0.13724   0.07783  -0.00198   0.06711  -0.07571
   2    27     1         -0.00101  -0.02259  -0.07307   0.00322   0.06794
   3    27     1          0.23356   0.07256   0.00046   0.01851  -0.00606
   1    28     6          0.15547  -0.01068   0.01894   0.04317  -0.06781
   2    28     6         -0.01899   0.02743   0.10824   0.04138   0.07419
   3    28     6          0.00665  -0.06783   0.00552  -0.04807  -0.12067
   1    29     1          0.13914  -0.00989  -0.02086   0.02585  -0.05610
   2    29     1          0.00277   0.01868   0.14529   0.07630   0.11489
   3    29     1          0.00863  -0.06214   0.03920  -0.04735  -0.17068
   1    30     1          0.10262  -0.02008   0.01767   0.01034  -0.15927
   2    30     1          0.02173   0.04679   0.10679   0.03837   0.07190
   3    30     1          0.04163  -0.05404   0.00507  -0.04388  -0.10626
   1    31     6          0.16296  -0.00344  -0.00157   0.05535  -0.00384
   2    31     6         -0.16029   0.00487   0.04381  -0.01418   0.01093
   3    31     6         -0.00203  -0.05951  -0.02793  -0.03563  -0.03583
   1    32     6          0.32801  -0.01006   0.01447   0.04703  -0.03656
   2    32     6         -0.18552   0.02193   0.04447  -0.00222   0.00340
   3    32     6         -0.02085  -0.05661  -0.06778  -0.02120   0.05008
   1    33     1         -0.05210   0.01592  -0.00311   0.01864  -0.00758
   2    33     1         -0.00540  -0.07113  -0.10443   0.11520   0.03852
   3    33     1         -0.02457   0.17546   0.02146   0.05242  -0.11639
   1    34     6          0.09638   0.00650  -0.01756   0.08868   0.11130
   2    34     6         -0.05519  -0.04958  -0.01310  -0.07961  -0.05484
   3    34     6          0.03379  -0.07951  -0.04541  -0.06295  -0.07571
[...]
 ,-0.00009700,-0.00013895,0.00001654,-0.00001810,0.00021017,-0.00023283
 ,-0.00004655,0.00026715,-0.00003552,-0.00001015,-0.00002226,-0.0000152
 4,0.00000125,0.00001509,0.00009337,0.00013306,-0.00022498,0.00001680,-
 0.00002950,0.00000424,0.00000376,0.00000213,-0.00000688,-0.00000346,0.
 00000023,0.00000711,-0.00006793,0.00007834,-0.00001641,0.00002594,0.00
 001767,-0.00000595,0.00008001,-0.00000229,-0.00002827,-0.00006075,-0.0
 0005404,-0.00006281,-0.00000037,0.00001063,-0.00002083,0.00001762,-0.0
 0000196,0.00001147,0.00014482,-0.00006398,0.00017627,-0.00007134,0.000
 08572,-0.00010718,0.00000365,-0.00002070,-0.00003647,-0.00008505,-0.00
 005469,-0.00003659,0.00004789,-0.00014722,-0.00008927,0.00002075,-0.00
 001830,-0.00000566,0.00000399,-0.00000721,-0.00000783,0.00000022,0.000
 00748,0.00000482,-0.00000183,0.00000445,-0.00000294,0.00006159,0.00003
 877,0.00008138,0.00000273,-0.00001261,-0.00003145,0.00000906,-0.000004
 06,-0.00000602,-0.00001387,0.00003311,-0.00001168,-0.00001816,0.000013
 72,-0.00002413,0.00000913,0.00000551,-0.00002369,0.00000774,-0.0000015
 3,0.00000159,0.00000537,0.00000413,-0.00001322,0.00012410,0.00126091,0
 .00092150,-0.00008588,-0.00040158,-0.00009482,-0.00009342,-0.00002698,
 -0.00014073,0.00020998,0.00030619,-0.00011653,-0.00088235,0.00090279,0
 .00037433,0.00006529,-0.00004066,-0.00008527,0.00032084,0.00002526,-0.
 00013324,-0.00024949,0.00009297,-0.00014013,0.01783675,-0.09016237,-0.
 09920245,-0.01910612,0.09743306,-0.00006982,0.00000353,0.00000901,0.00
 009352,0.00000298,-0.00001875,-0.00005380,0.00001235,0.00000050,0.0000
 2630,-0.00005726,0.00003904,-0.00000033,-0.00000102,0.00000196,0.00000
 327,0.00008681,-0.00008802,0.00005383,-0.00001894,0.00000172,0.0000057
 4,-0.00000013,-0.00000233,-0.00001968,-0.00001640,0.00000700,0.0000305
 7,-0.00003868,0.00003897,-0.00019626,-0.00006421,0.00006800,0.00050199
 ,0.00023017,-0.00024994,-0.00001497,-0.00004269,0.00024947,0.00006611,
 -0.00123000,-0.00068708,-0.00000491,0.00006425,0.00006580,0.00003618,0
 .00027842,-0.00029165,-0.00071509,0.00480766,-0.00188995,0.00378444,-0
 .00952509,-0.02164294,-0.00007945,0.00007392,0.00038689,-0.00005207,0.
 00014824,-0.00005081,-0.00002330,0.00000602,0.00002057,0.00000764,-0.0
 0000022,0.00000180,-0.00000676,0.00019761,0.00008747,0.00000698,0.0000
 2718,-0.00002383,0.00001001,-0.00002510,-0.00002642,-0.00001056,-0.000
 01205,0.00000691,-0.00000052,-0.00012564,-0.00011396,0.00000878,-0.000
 02800,0.00000208,-0.00000075,0.00000632,-0.00000366,-0.00000064,0.0000
 0475,0.00000426,-0.00003502,0.00003754,-0.00000083,0.00001274,0.000004
 18,0.00002462,0.00002838,0.00000821,-0.00001231,-0.00000931,-0.0000372
 1,-0.00004068,-0.00000248,0.00000048,-0.00000347,0.00001115,-0.0000035
 7,0.00001477,0.00004111,0.00007056,-0.00004954,-0.00002756,-0.00006613
 ,0.00002006,0.00000262,-0.00001078,-0.00000472,0.00000206,0.00000258,0
 .00000252,0.00000569,-0.00002712,-0.00001537,0.00000524,-0.00001327,0.
 00000207,0.00000415,-0.00000080,-0.00000034,-0.00000132,0.00000551,-0.
 00000055,-0.00000510,0.00000327,0.00000222,0.00001277,0.00001702,0.000
 03951,0.00000265,-0.00000918,-0.00001393,0.00000746,-0.00000369,-0.000
 00641,0.00000096,-0.00000656,-0.00000582,-0.00001379,0.00000586,0.0000
 1041,0.00000097,0.00000502,0.00003328,-0.00000119,0.00000228,0.0000047
 5,-0.00000296,-0.00001163,0.00000141,-0.00049746,-0.00161167,0.0009477
 7,0.00028239,0.00056507,0.00050118,0.00007871,0.00013039,-0.00009947,-
 0.00026037,-0.00000315,0.00038811,0.00097023,-0.00126216,0.00073556,0.
 00001269,0.00008340,-0.00003071,-0.00067387,0.00047933,0.00023208,0.00
 003689,0.00011841,0.00043643,0.03854037,-0.09753716,-0.26232152,-0.042
 18173,0.10382621,0.28468099,0.00006252,-0.00000473,-0.00002494,-0.0000
 3121,0.00000374,-0.00000850,0.00002898,0.00000139,0.00000544,0.0000045
 1,0.00002174,-0.00003368,0.00000254,-0.00000288,-0.00000811,-0.0000207
 1,-0.00002585,0.00001423,0.00004185,0.00010773,0.00006309,-0.00000094,
 -0.00000151,-0.00000202,0.00000710,-0.00000172,-0.00001439,-0.00001044
 ,0.00002151,-0.00000053,0.00007817,0.00009935,-0.00015320,0.00005491,-
 0.00001111,-0.00003759,-0.00019487,0.00032676,0.00059339,0.00005672,0.
 00008747,0.00017858,0.00000138,0.00006811,-0.00008134,-0.00000113,-0.0
 0003505,0.00006664,-0.00019822,-0.00035248,-0.00056608,-0.00079081,0.0
 0095366,-0.00005031,0.00006546,0.00018468,0.00044356,0.00006294,-0.000
 27024,-0.00005059,-0.00016245,-0.00002037,0.00008627,0.00026085,-0.000
 16383,-0.00021941,0.00035052,0.00001147,0.00023646,-0.00068878,-0.0003
 2315,0.00047188,0.00011206,0.00001731,-0.00014033,0.00001224,0.0000521
 6,0.00004400,0.00003442,0.00090557,0.00017491,0.00002326,0.00001558,0.
 00000504,0.00000839,-0.00000918,-0.00000995,-0.00000273,-0.00000530,-0
 .00000307,-0.00010317,0.00000011,-0.00005138,0.00002158,-0.00009488,-0
 .00001918,-0.00005850,-0.00028174,-0.00031164,-0.00017826,-0.00006999,
 -0.00005466,0.00002296,0.00000915,-0.00003113,0.00001848,0.00001081,-0
 .00000374,0.00019079,-0.00009137,0.00039124,-0.00008416,0.00017821,-0.
 00019856,0.00001002,-0.00003625,-0.00007091,-0.00017874,-0.00011772,-0
 .00008885,0.00002688,-0.00022062,-0.00011260,0.00003607,-0.00000723,-0
 .00002383,0.00000981,-0.00001168,-0.00000570,0.00000917,0.00000878,0.0
 0001627,-0.00000046,0.00000550,-0.00001580,0.00013074,0.00010001,0.000
 09836,-0.00001840,-0.00001830,-0.00002132,-0.00000037,0.00000106,-0.00
 000031,-0.00002298,0.00008821,-0.00002063,-0.00005716,0.00005938,-0.00
 003938,0.00000757,0.00002119,-0.00004204,0.00002974,-0.00001128,-0.000
 00889,0.00002289,0.00000638,-0.00002362,0.00076426,0.00021647,0.000728
 53,-0.00003597,0.00006398,-0.00014021,0.00029522,0.00022494,-0.0000685
 6,0.00028420,-0.00022770,-0.00013908,0.00065084,0.00115009,-0.00013902
 ,0.00023945,0.00021984,-0.00034085,-0.00002336,-0.00003935,0.00018393,
 0.00015395,-0.00003549,0.00022414,-0.18174843,-0.12637399,-0.02985234,
 0.00391645,0.00460287,0.00089846,0.19357982,0.00003156,-0.00002768,-0.
 00002734,-0.00001886,0.00000711,0.00000860,0.00002577,0.00000244,0.000
 00541,0.00000210,0.00002352,-0.00002343,0.00000131,-0.00000164,-0.0000
 0414,-0.00000757,-0.00003864,0.00003762,0.00000236,0.00003659,0.000001
 82,0.00000053,-0.00000199,-0.00000289,0.00000624,-0.00000305,-0.000015
 72,-0.00001573,0.00002078,-0.00001789,0.00010087,-0.00013408,-0.000043
 79,0.00010506,0.00018675,-0.00007493,-0.00000430,0.00005556,0.00005475
 ,0.00020364,0.00003810,0.00012606,-0.00007668,0.00002834,-0.00010386,-
 0.00002440,-0.00000432,0.00006635,-0.00005049,0.00043250,-0.00138666,-
 0.01617922,-0.01658138,-0.00547396,0.00007255,0.00058617,0.00061479,0.
 00002993,-0.00004163,0.00009182,-0.00010138,0.00010447,0.00006977,0.00
 001678,-0.00004335,-0.00004961,0.00054791,-0.00105910,-0.00035655,-0.0
 0021458,-0.00003827,0.00027009,0.00006563,0.00010400,-0.00003947,-0.00
 002473,0.00000436,0.00003524,0.00084237,-0.00177674,-0.00115513,0.0000
 0390,0.00001511,0.00000088,0.00000252,-0.00000431,-0.00000158,-0.00000
 039,-0.00000205,-0.00000308,-0.00003297,0.00000003,-0.00000024,0.00003
 685,-0.00006526,0.00001891,-0.00012810,-0.00008932,-0.00022199,-0.0000
 2010,-0.00000171,-0.00000538,0.00000203,-0.00000155,-0.00000455,-0.000
 00049,0.00000102,0.,-0.00019967,0.00003306,0.00013060,0.00008880,-0.00
 001430,-0.00002715,0.00002438,-0.00002694,-0.00001387,-0.00001932,-0.0
 0005065,0.00002102,0.00003979,-0.00014080,-0.00003596,-0.00000385,0.00
 001087,-0.00000413,-0.00000224,-0.00000087,0.00000274,0.00000079,-0.00
 000280,0.00000126,0.00000052,0.00000055,-0.00000364,0.00002625,0.00000
 587,0.00000249,-0.00000697,0.00000157,-0.00000039,-0.00000255,0.000002
 12,0.00000099,0.00000800,0.00001100,-0.00002015,0.00000935,-0.00001042
 ,0.00000650,-0.00001056,-0.00000034,-0.00000604,0.00000981,-0.00000459
 ,-0.00000376,-0.00000161,0.00000650,-0.00000290,0.00123514,-0.00310358
 ,0.00478239,0.00028145,0.00042463,0.00008943,-0.00005005,0.00025263,-0
 .00002802,-0.00130438,-0.00116154,-0.00016248,-0.00139742,0.00084432,-
 0.00063481,0.00072711,0.00001720,0.00044939,0.00001282,-0.00029848,-0.
 00014218,0.00022176,0.00036318,-0.00005194,-0.12531628,-0.16349449,-0.
 02741806,-0.00907483,-0.00822538,-0.00093448,0.13863522,0.18205551,0.0
 0002253,0.00001842,0.00002124,-0.00002742,-0.00001129,-0.00000293,0.00
 001275,-0.00000044,-0.00000285,-0.00000940,0.00001003,-0.00000719,0.00
 000061,0.00000041,-0.00000026,0.00001231,-0.00001933,0.00001383,-0.000
 01491,0.00000354,0.00000592,-0.00000186,0.00000007,0.00000041,0.000003
 99,0.00000649,0.00000164,-0.00000666,0.00000707,-0.00000561,0.00002997
 ,0.00012041,-0.00003485,-0.00016777,-0.00018913,0.00012911,-0.00013132
 ,-0.00020344,0.00001542,-0.00017338,0.00009981,0.00012433,0.00004525,-
 0.00001257,0.00004117,0.00000614,-0.00002481,0.00001113,0.00084998,0.0
 0054626,0.00126285,0.01646841,0.01525937,0.00298067,-0.00011857,-0.000
 06752,-0.00060804,0.00002001,-0.00004482,-0.00002158,-0.00002929,0.000
 01324,0.00000142,-0.00002117,-0.00009353,0.00004822,0.00015239,-0.0002
 2617,-0.00009703,-0.00003230,-0.00010040,0.00007998,-0.00001951,0.0000
 5040,-0.00004803,0.00002746,0.00005579,-0.00000492,0.00033371,-0.00099
 115,0.00006299,-0.00000483,0.00002245,-0.00000191,0.00000095,-0.000004
 02,0.00000026,0.00000169,-0.00000231,-0.00000440,0.00002621,-0.0000470
 3,0.00000278,0.00003084,-0.00002751,-0.00000603,-0.00027377,-0.0002234
 0,-0.00023206,-0.00002614,0.00000527,0.00001422,0.00000611,-0.00000362
 ,0.00000201,-0.00000462,0.00000606,-0.00000646,0.00003649,-0.00006251,
 -0.00003345,-0.00000777,0.00006199,-0.00001943,0.00000073,0.00002498,0
 .00001004,-0.00001393,0.00000606,-0.00001926,-0.00003382,0.00004670,0.
 00003451,-0.00000847,0.00001998,-0.00000444,-0.00000392,0.00000086,0.0
 0000403,0.00000068,-0.00000472,0.00000179,0.00000364,-0.00000226,-0.00
 000231,0.00000560,0.00001635,-0.00000196,-0.00000268,-0.00000700,0.000
 00328,-0.00000560,0.00000269,0.00000348,-0.00000471,0.00001660,-0.0000
 0011,-0.00000279,0.00001768,-0.00000215,0.00000389,0.00000163,-0.00001
 259,-0.00000312,0.00000029,0.00000119,0.00000109,0.00000118,0.00000335
 ,-0.00048305,0.00257608,-0.00285324,-0.00013789,0.00027110,0.00019472,
 -0.00006669,-0.00013379,-0.00021803,0.00067756,0.00113433,0.00056435,0
 .00094071,-0.00027441,0.00062040,-0.00039669,-0.00005739,0.00001748,-0
 .00017745,-0.00016067,-0.00005553,0.00018671,-0.00023578,-0.00005229,-
 0.02991632,-0.02754693,-0.05203450,-0.02129083,-0.01839914,-0.00337883
 ,0.03311396,0.02867095,0.05490049,-0.00001993,0.00001264,0.00006157,0.
 00000991,-0.00000199,-0.00000943,-0.00001691,0.00000227,-0.00000353,0.
 00000662,-0.00001452,0.00002095,0.00000078,0.00000251,0.00000206,-0.00
 001000,0.00004030,-0.00003640,0.00000618,-0.00003668,-0.00002919,-0.00
 000067,0.00000033,0.00000123,-0.00000453,0.00000246,0.00000819,0.00001
 918,-0.00002030,0.00001385,0.00043826,0.00020955,-0.00009214,0.0002440
 2,-0.00050549,0.00013677,-0.00043309,-0.00077184,0.00205915,-0.0002830
 6,-0.00004588,-0.00011331,-0.00000700,-0.00007223,0.00006141,0.0000183
 1,0.00004109,-0.00006578,-0.00053935,0.00072976,0.00035894,-0.00023838
 ,-0.00105476,-0.00073043,-0.00006430,0.00004295,0.00000078,-0.00016154
 ,0.00013999,-0.00010027,-0.00001873,0.00012066,0.00001324,-0.00012833,
 0.00012611,0.00013571,0.00014691,0.00003883,0.00003396,0.00019706,0.00
 006733,-0.00015909,0.00018558,0.00005111,0.00000366,-0.00000457,0.0000
 0842,-0.00001044,-0.00028021,-0.00036213,-0.00053092,0.00000529,0.0000
 0129,0.00000240,-0.00000519,0.00000854,0.00000043,0.00000298,0.0000001
 9,0.00000195,0.00001833,-0.00004789,-0.00007255,-0.00000148,-0.0000443
 9,0.00005411,0.00004633,-0.00000539,-0.00001275,0.00009245,0.00003466,
 0.00000458,-0.00002719,-0.00003454,0.00000733,-0.00002223,0.00000474,0
 .00000066,-0.00044079,0.00008621,-0.00006873,0.00019207,-0.00015657,0.
 00011086,0.00002933,-0.00002560,0.00000651,0.00010683,0.00002838,0.000
 05007,0.00002366,-0.00009140,-0.00004593,-0.00002041,0.00001761,0.0000
 0190,-0.00000161,0.00000875,0.00000867,0.00000121,-0.00000488,-0.00000
 125,-0.00000075,-0.00000362,0.00000261,-0.00008468,0.00000696,-0.00000
 802,0.00004108,-0.00001643,-0.00000123,-0.00000489,0.00000203,0.000001
 33,0.00001209,-0.00003583,-0.00000595,0.00003763,-0.00003136,0.0000652
 9,-0.00001824,-0.00001407,0.00002903,0.00000132,0.00000303,-0.00000868
 ,-0.00001115,-0.00000190,0.00001562,0.00064905,-0.00042451,-0.00002198
 ,-0.00003795,-0.00001612,-0.00006956,0.00018009,0.00011080,0.00015167,
 0.00014119,0.00012198,-0.00006802,0.00087797,0.00090495,-0.00094366,0.
 00024842,-0.00010782,0.00020428,0.00014083,-0.00030417,0.00002576,-0.0
 0004077,0.00018512,0.00008635,-0.25624293,0.10755726,-0.00400481,-0.00
 302758,0.00055129,-0.00063197,-0.01707741,0.01086859,0.00059625,0.2751
 5488,-0.00001998,-0.00004971,-0.00000118,0.00000960,-0.00000162,0.0000
 0665,-0.00000773,0.00000050,0.00001028,-0.00000481,0.00000111,0.000007
 65,-0.00000154,0.00000181,0.00000389,-0.00001550,0.00000262,0.00001481
 ,-0.00003025,-0.00006877,-0.00005244,0.00000125,-0.00000062,-0.0000000
 9,0.00000075,-0.00000047,0.00000126,0.00000058,-0.00000279,-0.00001222
 ,-0.00022477,-0.00028036,0.00031337,-0.00024913,0.00040599,-0.00006535
 ,-0.00031246,0.00024760,-0.00027646,0.00022488,-0.00011601,-0.00007814
 ,0.00005712,0.00004507,-0.00006859,-0.00000104,-0.00000375,0.00000995,
 0.00027039,0.00024632,-0.00088336,0.02011596,-0.00964893,-0.00171339,0
 .00005096,-0.00003545,0.00013272,0.00035346,0.00028510,-0.00018530,-0.
 00000440,0.00003883,-0.00002474,-0.00009250,0.00006363,0.00009975,-0.0
 0013140,-0.00018251,-0.00006960,0.00015058,0.00006606,-0.00015712,-0.0
 0003686,0.00000624,0.00006278,0.00000155,0.00001280,-0.00000906,-0.000
 87806,-0.00014968,0.00011932,-0.00000922,-0.00000307,0.00000796,0.,0.0
 0000608,0.00000302,0.00000016,0.00000364,0.00000163,0.00002205,0.00004
 437,0.00006356,-0.00000669,0.00000339,-0.00001955,0.00004453,0.0000063
 7,0.00004312,0.00011226,-0.00001165,0.00000074,-0.00000703,-0.00001950
 ,0.00001690,-0.00000971,-0.00000914,0.00001157,-0.00010032,-0.00004243
 ,0.00002731,0.00002412,0.00002606,0.00000296,0.00001547,-0.00002439,-0
 .00000167,0.00005424,0.00002609,0.00002076,0.00001412,-0.00005946,0.00
 002034,-0.00001753,0.00000730,0.00000703,-0.00000127,0.00000305,0.0000
 0339,-0.00000384,-0.00000384,-0.00000250,0.00000296,-0.00000171,0.0000
 0449,-0.00006704,-0.00005241,-0.00003256,0.00001879,0.00000576,0.00001
 362,-0.00000259,-0.00000094,0.00000002,0.00000209,-0.00002149,0.000001
 07,0.00002950,-0.00002464,0.00000911,-0.00000049,-0.00000796,0.0000104
 0,-0.00001115,0.00000772,-0.00000080,-0.00000675,-0.00000318,0.0000051
 6,0.00125797,0.00102750,-0.00036063,0.00006264,-0.00009949,0.00000958,
 -0.00069562,-0.00040847,0.00024527,-0.00027361,0.00022478,-0.00004306,
 -0.00093609,-0.00329141,0.00354828,0.00022927,0.00019405,0.00016790,-0
 .00048530,0.00014602,0.00003853,0.00153604,-0.00022997,0.00040371,0.10
 648003,-0.10273170,0.00232724,0.01100320,-0.00581754,0.00140844,-0.019
 61546,0.01077537,0.00008260,-0.11788638,0.10947382,0.00004973,0.000048
 25,-0.00002436,-0.00008142,-0.00000559,0.00000560,0.00005040,-0.000012
 23,0.00000526,-0.00003394,0.00005655,-0.00005262,-0.00000312,-0.000002
 12,0.00000199,0.00006657,-0.00013235,0.00014804,-0.00007253,-0.0000166
 7,0.00001363,-0.00000667,0.00000198,0.00000255,0.00000857,0.00001103,0
 .00000123,-0.00004849,0.00005302,-0.00005845,0.00027198,0.00065097,-0.
 00055404,0.00025462,-0.00058001,0.00021397,0.00070464,0.00056383,-0.00
 243862,-0.00015725,0.00018909,0.00027347,-0.00004928,-0.00006131,0.000
 08286,0.00001707,-0.00003172,0.00004013,-0.00086515,-0.00022937,0.0009
 9065,-0.02153568,0.00939520,-0.00039819,0.00011798,-0.00005747,-0.0001
 1384,0.00064562,-0.00018558,-0.00040090,0.00001012,0.00000307,-0.00000
 682,-0.00006319,0.00006371,0.00001498,0.00007996,-0.00004557,-0.000027
 61,-0.00002613,-0.00012678,-0.00011836,0.00016496,0.00006514,-0.000014
 17,0.00002242,0.00001117,-0.00000469,-0.00038277,-0.00018541,-0.000234
 17,-0.00002405,0.00009414,0.00000006,-0.00000083,-0.00001083,0.0000090
 5,0.00000538,-0.00000450,-0.00001574,0.00003921,-0.00014950,0.00005017
 ,-0.00008991,-0.00007036,-0.00001171,0.00001043,0.00000833,-0.00000605
 ,0.00003794,0.00008839,0.00013612,0.00001685,-0.00000389,0.00001420,-0
 .00001761,-0.00000202,-0.00003676,-0.00028937,0.00005218,-0.00002702,0
 .00012987,-0.00007387,0.00005806,0.00000782,0.00000054,-0.00000039,0.0
 0003317,0.00001089,0.00001604,-0.00002878,0.00005828,0.00002525,-0.000
 01379,0.00002506,-0.00000214,0.00000007,0.00000619,0.00000792,0.000003
 15,-0.00000865,0.00000194,0.00000474,-0.00000441,-0.00000519,-0.000030
 15,-0.00007715,-0.00014769,-0.00003096,0.00004389,0.00004706,-0.000024
 59,0.00000645,0.00001463,0.00001392,-0.00000228,0.00000809,0.00000836,
 -0.00001177,0.00002947,-0.00002139,-0.00000805,0.00000152,0.00000735,-
 0.00000570,-0.00000204,0.00000233,0.00000648,0.00000680,-0.00034559,-0
 .00100769,0.00020160,0.00013734,0.00002198,-0.00001577,0.00035314,0.00
 020358,0.00037040,0.00000244,-0.00014359,-0.00011483,0.00073768,0.0032
 4269,-0.00322469,0.00023719,-0.00012008,-0.00003809,-0.00001837,0.0001
 8349,0.00026390,-0.00131572,0.00085546,0.00015548,-0.00331350,0.001804
 19,-0.04546716,0.02594047,-0.01216062,0.00200467,-0.00481012,0.0029423
 1,-0.00140644,0.00350688,-0.00523035,0.04975176\\-0.00000621,0.0000059
 8,0.00000032,-0.00000670,0.00000859,0.00000069,-0.00000953,0.00001095,
 -0.00000067,-0.00000598,0.00001055,-0.00000414,-0.00000410,0.00001214,
 -0.00000665,-0.00000141,0.00000750,-0.00000623,-0.00000055,0.00000356,
 -0.00000177,-0.00000996,0.00001330,-0.00000151,-0.00001010,0.00000862,
 0.00000409,0.00000278,0.00000617,-0.00000761,-0.00000469,0.00000300,0.
 00000339,-0.00000862,0.00000378,0.00000665,-0.00000174,0.00000097,0.00
 000176,-0.00000660,0.00000012,0.00000834,-0.00000809,-0.00000148,0.000
 01196,-0.00000897,0.00000075,0.00000933,-0.00000332,-0.00000221,0.0000
 0700,-0.00000180,-0.00000720,0.00000806,-0.00000197,-0.00000437,0.0000
 0679,0.00000130,0.00000097,-0.00000510,0.00000277,-0.00000775,0.000003
 88,0.00000693,-0.00000680,-0.00000144,0.00000475,-0.00000623,-0.000000
 95,0.00000104,-0.00000005,-0.00000097,0.00000095,-0.00000100,0.0000003
 5,0.00000804,-0.00000994,-0.00000031,0.00000569,-0.00000632,0.00000070
 ,0.00000302,0.00000859,-0.00001068,0.00000287,0.00001061,-0.00001247,0
 .00000021,0.00000789,-0.00001015,0.00000605,0.00000132,-0.00000755,0.0
 0000406,0.00000258,-0.00000818,0.00000235,-0.00000811,0.00000525,0.000
 00784,-0.00000102,-0.00001010,0.00000930,-0.00000245,-0.00000935,0.000
 00984,0.00000145,-0.00001328,-0.00000039,-0.00000255,0.00000312,-0.000
 00207,-0.00000111,0.00000458,0.00000270,-0.00000712,0.00000380,0.00000
 677,-0.00000507,-0.00000274,0.00000747,-0.00000495,-0.00000416,0.00000
 297,0.00000355,-0.00000818,0.00000495,0.00000634,-0.00001169,0.0000022
 0,0.00000540,-0.00000660,-0.00000053,0.00000800,-0.00000787,0.00000755
 ,0.00000035,-0.00001015,0.00001007,-0.00000039,-0.00001213,0.00000468,
 0.00000753,-0.00001341,0.00000693,-0.00000008,-0.00000822,-0.00000207,
 0.00000264,0.00000038,-0.00000644,0.00000274,0.00000252,-0.00000437,0.
 00000712,-0.00000136,-0.00000394,0.00000598,-0.00000025,-0.00000346,-0
 .00000557,0.00000900,-0.00000193,-0.00000753,0.00001118,-0.00000280,-0
 .00000380,0.00000643,-0.00000581,-0.00000365,0.00001111,-0.00000226,-0
 .00000906,0.00001224,-0.00000224,-0.00000937,0.00001194,-0.00000190,-0
 .00001145,0.00001339,-0.00000630,-0.00000666,0.00001467,0.00000142,-0.
 00000787,0.00000522,0.00000320,-0.00001125,0.00000767,0.00000336,-0.00
 000957,0.00000606,0.00000278,-0.00000706,0.00000402\\\@


 Sacred cows make the best hamburger.
                               -- Mark Twain
 Job cpu time:       3 days  8 hours 41 minutes 21.9 seconds.
 File lengths (MBytes):  RWF=  10675 Int=      0 D2E=      0 Chk=     25 Scr=      1
 Normal termination of Gaussian 09 at Fri Feb  2 19:41:53 2018.
