 Entering Gaussian System, Link 0=g09
 Initial command:
 /sw/group/lms/sw/g09_D01/g09/l1.exe "/work/job.575555/Gau-52753.inp" -scrdir="/work/job.575555/"
 Default is to use a total of  28 processors:
                               28 via shared-memory
                                1 via Linda
 Entering Link 1 = /sw/group/lms/sw/g09_D01/g09/l1.exe PID=     52754.
  
 Copyright (c) 1988,1990,1992,1993,1995,1998,2003,2009,2013,
            Gaussian, Inc.  All Rights Reserved.
  
 This is part of the Gaussian(R) 09 program.  It is based on
 the Gaussian(R) 03 system (copyright 2003, Gaussian, Inc.),
 the Gaussian(R) 98 system (copyright 1998, Gaussian, Inc.),
 the Gaussian(R) 94 system (copyright 1995, Gaussian, Inc.),
 the Gaussian 92(TM) system (copyright 1992, Gaussian, Inc.),
 the Gaussian 90(TM) system (copyright 1990, Gaussian, Inc.),
 the Gaussian 88(TM) system (copyright 1988, Gaussian, Inc.),
 the Gaussian 86(TM) system (copyright 1986, Carnegie Mellon
 University), and the Gaussian 82(TM) system (copyright 1983,
 Carnegie Mellon University). Gaussian is a federally registered
 trademark of Gaussian, Inc.
  
 This software contains proprietary and confidential information,
 including trade secrets, belonging to Gaussian, Inc.
  
 This software is provided under written license and may be
 used, copied, transmitted, or stored only in accord with that
 written license.
  
 The following legend is applicable only to US Government
 contracts under FAR:
  
                    RESTRICTED RIGHTS LEGEND
  
 Use, reproduction and disclosure by the US Government is
 subject to restrictions as set forth in subparagraphs (a)
 and (c) of the Commercial Computer Software - Restricted
 Rights clause in FAR 52.227-19.
  
 Gaussian, Inc.
 340 Quinnipiac St., Bldg. 40, Wallingford CT 06492
  
  
 ---------------------------------------------------------------
 Warning -- This program may not be used in any manner that
 competes with the business of Gaussian, Inc. or will provide
 assistance to any competitor of Gaussian, Inc.  The licensee
 of this program is prohibited from giving any competitor of
 Gaussian, Inc. access to this program.  By using this program,
 the user acknowledges that Gaussian, Inc. is engaged in the
 business of creating and licensing software in the field of
 computational chemistry and represents and warrants to the
 licensee that it is not a competitor of Gaussian, Inc. and that
 it will not use this program in any manner prohibited above.
 ---------------------------------------------------------------
  

 Cite this work as:
 Gaussian 09, Revision D.01,
 M. J. Frisch, G. W. Trucks, H. B. Schlegel, G. E. Scuseria, 
 M. A. Robb, J. R. Cheeseman, G. Scalmani, V. Barone, B. Mennucci, 
 G. A. Petersson, H. Nakatsuji, M. Caricato, X. Li, H. P. Hratchian, 
 A. F. Izmaylov, J. Bloino, G. Zheng, J. L. Sonnenberg, M. Hada, 
 M. Ehara, K. Toyota, R. Fukuda, J. Hasegawa, M. Ishida, T. Nakajima, 
 Y. Honda, O. Kitao, H. Nakai, T. Vreven, J. A. Montgomery, Jr., 
 J. E. Peralta, F. Ogliaro, M. Bearpark, J. J. Heyd, E. Brothers, 
 K. N. Kudin, V. N. Staroverov, T. Keith, R. Kobayashi, J. Normand, 
 K. Raghavachari, A. Rendell, J. C. Burant, S. S. Iyengar, J. Tomasi, 
 M. Cossi, N. Rega, J. M. Millam, M. Klene, J. E. Knox, J. B. Cross, 
 V. Bakken, C. Adamo, J. Jaramillo, R. Gomperts, R. E. Stratmann, 
 O. Yazyev, A. J. Austin, R. Cammi, C. Pomelli, J. W. Ochterski, 
 R. L. Martin, K. Morokuma, V. G. Zakrzewski, G. A. Voth, 
 P. Salvador, J. J. Dannenberg, S. Dapprich, A. D. Daniels, 
 O. Farkas, J. B. Foresman, J. V. Ortiz, J. Cioslowski, 
 and D. J. Fox, Gaussian, Inc., Wallingford CT, 2013.
 
 ******************************************
 Gaussian 09:  ES64L-G09RevD.01 24-Apr-2013
                 2-Feb-2018 
 ******************************************
 %chk=Sub-10-Cl-18-tBu.R.2_2a_r_up.Cf1.chk
 ---------------------------------------------------------
 #M06/genecp denfit freq=(hpmodes,noraman,temperature=298)
 ---------------------------------------------------------
 1/10=4,30=1,38=1,112=298000/1,3;
 2/12=2,17=6,18=5,40=1/2;
 3/5=7,11=2,16=1,17=8,25=1,30=1,71=2,74=-54,82=47,140=1/1,2,3;
 4//1;
 5/5=2,38=5,98=1/2;
 8/6=4,10=90,11=11/1;
 11/6=1,8=1,9=11,15=111,16=1/1,2,10;
 10/6=1/2;
 6/7=2,8=2,9=2,10=2,18=1,28=1/1;
 7/8=11,10=1,25=1/1,2,3,16;
 1/10=4,30=1/3;
 99//99;
 ---------------------------------------------------
 Sub-10-Cl-18-tBu/R/2_2a_r_up/Cf1 step 4 (attempt 1)
 ---------------------------------------------------
 Symbolic Z-matrix:
 Charge =  1 Multiplicity = 1
 C                    0    -1.70302   2.01564   0.78076 
 C                    0    -2.52073   2.91732   1.44075 
 C                    0    -3.89628   2.84456   1.21857 
 C                    0    -4.38311   1.91071   0.32153 
 H                    0    -5.43889   1.84478   0.07249 
 C                    0    -3.47027   1.04252  -0.28743 
 N                    0    -2.16883   1.04365  -0.04385 
 H                    0    -4.5753    3.53266   1.71727 
 H                    0    -2.08318   3.66672   2.0952 
 Cl                   0    -4.07462  -0.05384  -1.48337 
 C                    0    -0.24064   2.13488   0.8256 
 O                    0     0.30149   3.06718   1.6026 
 N                    0     0.53444   1.43885   0.07674 
 C                    0     1.73983   2.88411   1.46183 
 H                    0     2.19269   3.87734   1.41118 
 H                    0     2.08916   2.3698    2.36525 
 C                    0     1.87636   2.03676   0.18912 
 C                    0     2.24278   2.82864  -1.09205 
 H                    0     2.61808   1.23446   0.32951 
 Pd                   0    -0.42745  -0.54042  -0.2615 
 C                    0     4.18885  -2.13588  -0.16145 
 C                    0     3.55414  -1.49747  -1.38524 
 C                    0     2.04338  -1.74058  -1.4218 
 C                    0     1.39467  -1.53845  -0.07963 
 C                    0     2.07964  -1.39314   1.08001 
 H                    0     3.75974  -0.41571  -1.36076 
 H                    0     1.57684  -1.07177  -2.16349 
 C                    0     0.50264  -4.1299   -0.21687 
 H                    0     1.52502  -4.26406   0.15271 
 H                    0     0.49135  -4.20605  -1.30783 
 C                    0    -1.39254  -2.42874  -0.20147 
 C                    0    -0.1504   -2.89529   0.32528 
 H                    0    -0.07484  -2.82419   1.41262 
 C                    0    -2.49081  -2.32983   0.83634 
 H                    0    -3.37941  -1.83185   0.41974 
 H                    0    -2.14838  -1.75773   1.71826 
 H                    0    -0.11023  -4.96234   0.16635 
 H                    0     5.27156  -1.97402  -0.11461 
 O                    0    -2.77585  -3.67311   1.18683 
 H                    0    -3.58739  -3.71931   1.71196 
 C                    0    -1.82087  -2.88608  -1.56806 
 H                    0    -2.13775  -3.94082  -1.52056 
 H                    0    -2.67243  -2.30639  -1.93459 
 H                    0    -1.01718  -2.80954  -2.31171 
 C                    0     3.56648  -1.56903   1.0868 
 O                    0     4.21202  -1.2776    2.07736 
 H                    0     4.02461  -3.22711  -0.16856 
 H                    0     4.00808  -1.87848  -2.30901 
 H                    0     1.85246  -2.75932  -1.78912 
 C                    0     1.48518  -1.07687   2.4154 
 H                    0     1.98659  -0.19862   2.84531 
 H                    0     0.41013  -0.86489   2.35695 
 H                    0     1.66056  -1.88834   3.13668 
 C                    0     1.35595   4.06181  -1.27421 
 H                    0     1.62093   4.56953  -2.21124 
 H                    0     0.29147   3.79433  -1.34536 
 H                    0     1.47323   4.80108  -0.47002 
 C                    0     3.70708   3.25326  -0.97819 
 H                    0     4.37279   2.38197  -0.88856 
 H                    0     4.01095   3.81145  -1.87387 
 H                    0     3.89371   3.90766  -0.11465 
 C                    0     2.07427   1.93272  -2.31843 
 H                    0     2.39463   2.46996  -3.22125 
 H                    0     2.68763   1.02395  -2.24613 
 H                    0     1.02805   1.63004  -2.46147 
 

 GradGradGradGradGradGradGradGradGradGradGradGradGradGradGradGradGradGrad
 Berny optimization.
 Initialization pass.
 Trust Radius=3.00D-01 FncErr=1.00D-07 GrdErr=1.00D-07
 Number of steps in this run=      2 maximum allowed number of steps=      2.
 GradGradGradGradGradGradGradGradGradGradGradGradGradGradGradGradGradGrad

 Stoichiometry    C24H34ClN2O3Pd(1+)
 Framework group  C1[X(C24H34ClN2O3Pd)]
 Deg. of freedom   189
 Full point group                 C1      NOp   1
 Largest Abelian subgroup         C1      NOp   1
 Largest concise Abelian subgroup C1      NOp   1
                         Standard orientation:                         
 ---------------------------------------------------------------------
 Center     Atomic      Atomic             Coordinates (Angstroms)
 Number     Number       Type             X           Y           Z
 ---------------------------------------------------------------------
      1          6           0       -1.703022    2.015641    0.780760
      2          6           0       -2.520731    2.917319    1.440745
      3          6           0       -3.896275    2.844564    1.218575
      4          6           0       -4.383106    1.910710    0.321531
      5          1           0       -5.438894    1.844780    0.072487
      6          6           0       -3.470273    1.042524   -0.287431
      7          7           0       -2.168825    1.043655   -0.043850
      8          1           0       -4.575295    3.532664    1.717267
      9          1           0       -2.083181    3.666721    2.095198
     10         17           0       -4.074620   -0.053840   -1.483370
     11          6           0       -0.240643    2.134883    0.825599
     12          8           0        0.301494    3.067182    1.602600
     13          7           0        0.534440    1.438845    0.076743
     14          6           0        1.739826    2.884107    1.461833
     15          1           0        2.192694    3.877339    1.411182
     16          1           0        2.089160    2.369796    2.365249
     17          6           0        1.876360    2.036763    0.189122
     18          6           0        2.242783    2.828641   -1.092053
     19          1           0        2.618082    1.234464    0.329508
     20         46           0       -0.427453   -0.540421   -0.261499
     21          6           0        4.188852   -2.135876   -0.161445
     22          6           0        3.554144   -1.497473   -1.385235
     23          6           0        2.043379   -1.740578   -1.421800
     24          6           0        1.394665   -1.538448   -0.079631
     25          6           0        2.079636   -1.393139    1.080008
     26          1           0        3.759737   -0.415708   -1.360762
     27          1           0        1.576842   -1.071773   -2.163487
     28          6           0        0.502639   -4.129901   -0.216871
     29          1           0        1.525024   -4.264059    0.152711
     30          1           0        0.491351   -4.206049   -1.307826
     31          6           0       -1.392537   -2.428739   -0.201473
     32          6           0       -0.150399   -2.895288    0.325281
     33          1           0       -0.074842   -2.824188    1.412615
     34          6           0       -2.490808   -2.329829    0.836336
     35          1           0       -3.379407   -1.831845    0.419739
     36          1           0       -2.148381   -1.757728    1.718258
     37          1           0       -0.110226   -4.962337    0.166348
     38          1           0        5.271561   -1.974016   -0.114612
     39          8           0       -2.775850   -3.673109    1.186834
     40          1           0       -3.587390   -3.719309    1.711961
     41          6           0       -1.820865   -2.886084   -1.568061
     42          1           0       -2.137750   -3.940823   -1.520562
     43          1           0       -2.672432   -2.306385   -1.934593
     44          1           0       -1.017180   -2.809544   -2.311709
     45          6           0        3.566483   -1.569028    1.086801
     46          8           0        4.212017   -1.277599    2.077362
     47          1           0        4.024607   -3.227111   -0.168559
     48          1           0        4.008083   -1.878477   -2.309009
     49          1           0        1.852463   -2.759316   -1.789119
     50          6           0        1.485175   -1.076870    2.415404
     51          1           0        1.986589   -0.198624    2.845314
     52          1           0        0.410131   -0.864891    2.356948
     53          1           0        1.660564   -1.888342    3.136684
     54          6           0        1.355949    4.061811   -1.274213
     55          1           0        1.620931    4.569525   -2.211244
     56          1           0        0.291473    3.794325   -1.345359
     57          1           0        1.473229    4.801078   -0.470020
     58          6           0        3.707078    3.253265   -0.978193
     59          1           0        4.372790    2.381971   -0.888557
     60          1           0        4.010947    3.811448   -1.873870
     61          1           0        3.893709    3.907657   -0.114651
     62          6           0        2.074266    1.932715   -2.318434
     63          1           0        2.394634    2.469958   -3.221251
     64          1           0        2.687629    1.023948   -2.246132
     65          1           0        1.028051    1.630041   -2.461465
 ---------------------------------------------------------------------
 Rotational constants (GHZ):      0.1575574      0.1291694      0.0885508
 General basis read from cards:  (5D, 7F)
 ======================================================================================================
                                       Pseudopotential Parameters
 ======================================================================================================
  Center     Atomic      Valence      Angular      Power
  Number     Number     Electrons     Momentum     of R      Exponent        Coefficient   SO-Coeffient
 ======================================================================================================
    1          6
                                   No pseudopotential on this center.
    2          6
                                   No pseudopotential on this center.
    3          6
                                   No pseudopotential on this center.
    4          6
                                   No pseudopotential on this center.
    5          1
                                   No pseudopotential on this center.
    6          6
                                   No pseudopotential on this center.
    7          7
                                   No pseudopotential on this center.
    8          1
                                   No pseudopotential on this center.
    9          1
                                   No pseudopotential on this center.
   10         17
                                   No pseudopotential on this center.
   11          6
                                   No pseudopotential on this center.
   12          8
                                   No pseudopotential on this center.
   13          7
                                   No pseudopotential on this center.
   14          6
                                   No pseudopotential on this center.
   15          1
                                   No pseudopotential on this center.
   16          1
                                   No pseudopotential on this center.
   17          6
                                   No pseudopotential on this center.
   18          6
                                   No pseudopotential on this center.
   19          1
                                   No pseudopotential on this center.
   20         46           18
                                      F and up 
                                                     0      598.3336444       -0.05631770    0.00000000
                                                     1      162.4298290      -20.12880360    0.00000000
                                                     2       51.5714771     -105.81979230    0.00000000
                                                     2       16.4888260      -42.57333450    0.00000000
                                                     2        5.8287656       -3.61650860    0.00000000
                                      S - F
                                                     0       73.3806304        3.00036510    0.00000000
                                                     1       14.7550438       32.43500930    0.00000000
                                                     2       17.8350204      459.08303830    0.00000000
                                                     2       12.7111477     -868.06290290    0.00000000
                                                     2        9.3292063      514.47260980    0.00000000
                                      P - F
                                                     0       55.6689877        4.95930990    0.00000000
                                                     1       64.2337771       21.17110290    0.00000000
                                                     2       17.6254952      605.05600920    0.00000000
                                                     2       11.9058155     -726.96418460    0.00000000
                                                     2        8.5100832      396.32748830    0.00000000
                                      D - F
                                                     0       49.9994728        3.05087450    0.00000000
                                                     1       39.7477547       22.25065800    0.00000000
                                                     2       11.4321366      674.83576980    0.00000000
                                                     2        9.1790080    -1040.85540480    0.00000000
                                                     2        7.5624429      505.93751470    0.00000000
   21          6
                                   No pseudopotential on this center.
   22          6
                                   No pseudopotential on this center.
   23          6
                                   No pseudopotential on this center.
   24          6
                                   No pseudopotential on this center.
   25          6
                                   No pseudopotential on this center.
   26          1
                                   No pseudopotential on this center.
   27          1
                                   No pseudopotential on this center.
   28          6
                                   No pseudopotential on this center.
   29          1
                                   No pseudopotential on this center.
   30          1
                                   No pseudopotential on this center.
   31          6
                                   No pseudopotential on this center.
   32          6
                                   No pseudopotential on this center.
   33          1
                                   No pseudopotential on this center.
   34          6
                                   No pseudopotential on this center.
   35          1
                                   No pseudopotential on this center.
   36          1
                                   No pseudopotential on this center.
   37          1
                                   No pseudopotential on this center.
   38          1
                                   No pseudopotential on this center.
   39          8
                                   No pseudopotential on this center.
   40          1
                                   No pseudopotential on this center.
   41          6
                                   No pseudopotential on this center.
   42          1
                                   No pseudopotential on this center.
   43          1
                                   No pseudopotential on this center.
   44          1
                                   No pseudopotential on this center.
   45          6
                                   No pseudopotential on this center.
   46          8
                                   No pseudopotential on this center.
   47          1
                                   No pseudopotential on this center.
   48          1
                                   No pseudopotential on this center.
   49          1
                                   No pseudopotential on this center.
   50          6
                                   No pseudopotential on this center.
   51          1
                                   No pseudopotential on this center.
   52          1
                                   No pseudopotential on this center.
   53          1
                                   No pseudopotential on this center.
   54          6
                                   No pseudopotential on this center.
   55          1
                                   No pseudopotential on this center.
   56          1
                                   No pseudopotential on this center.
   57          1
                                   No pseudopotential on this center.
   58          6
                                   No pseudopotential on this center.
   59          1
                                   No pseudopotential on this center.
   60          1
                                   No pseudopotential on this center.
   61          1
                                   No pseudopotential on this center.
   62          6
                                   No pseudopotential on this center.
   63          1
                                   No pseudopotential on this center.
   64          1
                                   No pseudopotential on this center.
   65          1
                                   No pseudopotential on this center.
 ======================================================================================================
 There are   666 symmetry adapted cartesian basis functions of A   symmetry.
 There are   634 symmetry adapted basis functions of A   symmetry.
   634 basis functions,  1169 primitive gaussians,   666 cartesian basis functions
   125 alpha electrons      125 beta electrons
       nuclear repulsion energy      3978.8284835323 Hartrees.
 NAtoms=   65 NActive=   65 NUniq=   65 SFac= 1.00D+00 NAtFMM=   60 NAOKFM=T Big=T
 Integral buffers will be    131072 words long.
 Raffenetti 2 integral format.
 Two-electron integral symmetry is turned on.
 Standard density basis: Auto (5D, 7F)
  2775 Density fitting functions
 There are  2775 symmetry adapted density basis functions of A   symmetry.
 One-electron integrals computed using PRISM.
   1 Symmetry operations used in ECPInt.
 ECPInt:  NShTT=   25878 NPrTT=  135610 LenC2=   23166 LenP2D=   72168.
 LDataN:  DoStor=T MaxTD1= 5 Len=  102
 NBasis=   634 RedAO= T EigKep=  1.02D-06  NBF=   634
 NBsUse=   633 1.00D-06 EigRej=  3.07D-07 NBFU=   633
 Defaulting to unpruned grid for atomic number  46.
 ExpMin= 2.62D-02 ExpMax= 2.52D+04 ExpMxC= 3.78D+03 IAcc=3 IRadAn=         5 AccDes= 0.00D+00
 Harris functional with IExCor= 1009 and IRadAn=       5 diagonalized for initial guess.
 HarFok:  IExCor= 1009 AccDes= 0.00D+00 IRadAn=         5 IDoV= 1 UseB2=F ITyADJ=14
 ICtDFT=  3500011 ScaDFX=  1.000000  1.000000  1.000000  1.000000
 Defaulting to unpruned grid for atomic number  46.
 Defaulting to unpruned grid for atomic number  46.
 Defaulting to unpruned grid for atomic number  46.
 Defaulting to unpruned grid for atomic number  46.
 Defaulting to unpruned grid for atomic number  46.
 Defaulting to unpruned grid for atomic number  46.
 Defaulting to unpruned grid for atomic number  46.
 Defaulting to unpruned grid for atomic number  46.
 Defaulting to unpruned grid for atomic number  46.
 Defaulting to unpruned grid for atomic number  46.
 Defaulting to unpruned grid for atomic number  46.
 Defaulting to unpruned grid for atomic number  46.
 Defaulting to unpruned grid for atomic number  46.
 Defaulting to unpruned grid for atomic number  46.
 Defaulting to unpruned grid for atomic number  46.
 Defaulting to unpruned grid for atomic number  46.
 Defaulting to unpruned grid for atomic number  46.
 Defaulting to unpruned grid for atomic number  46.
 Defaulting to unpruned grid for atomic number  46.
 Defaulting to unpruned grid for atomic number  46.
 Defaulting to unpruned grid for atomic number  46.
 Defaulting to unpruned grid for atomic number  46.
 Defaulting to unpruned grid for atomic number  46.
 Defaulting to unpruned grid for atomic number  46.
 Defaulting to unpruned grid for atomic number  46.
 Defaulting to unpruned grid for atomic number  46.
 Defaulting to unpruned grid for atomic number  46.
 Defaulting to unpruned grid for atomic number  46.
 FoFCou: FMM=F IPFlag=           0 FMFlag=      100000 FMFlg1=        2001
         NFxFlg=           0 DoJE=T BraDBF=F KetDBF=T FulRan=T
         wScrn=  0.000000 ICntrl=     500 IOpCl=  0 I1Cent=   200000004 NGrid=           0
         NMat0=    1 NMatS0=      1 NMatT0=    0 NMatD0=    1 NMtDS0=    0 NMtDT0=    0
 Petite list used in FoFCou.
 Requested convergence on RMS density matrix=1.00D-08 within 128 cycles.
 Requested convergence on MAX density matrix=1.00D-06.
 Requested convergence on             energy=1.00D-06.
 No special actions if energy rises.
 Defaulting to unpruned grid for atomic number  46.
 Defaulting to unpruned grid for atomic number  46.
 Defaulting to unpruned grid for atomic number  46.
 Defaulting to unpruned grid for atomic number  46.
 Defaulting to unpruned grid for atomic number  46.
 Defaulting to unpruned grid for atomic number  46.
 Defaulting to unpruned grid for atomic number  46.
 Defaulting to unpruned grid for atomic number  46.
 Defaulting to unpruned grid for atomic number  46.
 Defaulting to unpruned grid for atomic number  46.
 Defaulting to unpruned grid for atomic number  46.
 Defaulting to unpruned grid for atomic number  46.
 Defaulting to unpruned grid for atomic number  46.
 Defaulting to unpruned grid for atomic number  46.
 Defaulting to unpruned grid for atomic number  46.
 Defaulting to unpruned grid for atomic number  46.
 Defaulting to unpruned grid for atomic number  46.
 Defaulting to unpruned grid for atomic number  46.
 Defaulting to unpruned grid for atomic number  46.
 Defaulting to unpruned grid for atomic number  46.
 Defaulting to unpruned grid for atomic number  46.
 Defaulting to unpruned grid for atomic number  46.
 Defaulting to unpruned grid for atomic number  46.
 Defaulting to unpruned grid for atomic number  46.
 Defaulting to unpruned grid for atomic number  46.
 Defaulting to unpruned grid for atomic number  46.
 Defaulting to unpruned grid for atomic number  46.
 Defaulting to unpruned grid for atomic number  46.
 EnCoef did     3 forward-backward iterations
 EnCoef did     2 forward-backward iterations
 EnCoef did     3 forward-backward iterations
 Restarting incremental Fock formation.
 SCF Done:  E(RM06) =  -1856.01501530     A.U. after   27 cycles
            NFock= 27  Conv=0.83D-09     -V/T= 2.0508
 DoSCS=F DFT=T ScalE2(SS,OS)=  1.000000  1.000000
 Range of M.O.s used for correlation:     1   633
 NBasis=   634 NAE=   125 NBE=   125 NFC=     0 NFV=     0
 NROrb=    633 NOA=   125 NOB=   125 NVA=   508 NVB=   508

 **** Warning!!: The largest alpha MO coefficient is  0.13776766D+03

   1 Symmetry operations used in ECPInt.
 ECPInt:  NShTT=   25878 NPrTT=  135610 LenC2=   23166 LenP2D=   72168.
 LDataN:  DoStor=T MaxTD1= 6 Len=  172
 Number of processors reduced to   9 by ecpmxn.
 Symmetrizing basis deriv contribution to polar:
 IMax=3 JMax=2 DiffMx= 0.00D+00
 G2DrvN: will do    66 centers at a time, making    1 passes.
 Calling FoFCou, ICntrl=  3107 FMM=T I1Cent=   0 AccDes= 0.00D+00.
 Defaulting to unpruned grid for atomic number  46.
 Defaulting to unpruned grid for atomic number  46.
 Defaulting to unpruned grid for atomic number  46.
 Defaulting to unpruned grid for atomic number  46.
 Defaulting to unpruned grid for atomic number  46.
 Defaulting to unpruned grid for atomic number  46.
 Defaulting to unpruned grid for atomic number  46.
 Defaulting to unpruned grid for atomic number  46.
 Defaulting to unpruned grid for atomic number  46.
 Defaulting to unpruned grid for atomic number  46.
 Defaulting to unpruned grid for atomic number  46.
 Defaulting to unpruned grid for atomic number  46.
 Defaulting to unpruned grid for atomic number  46.
 Defaulting to unpruned grid for atomic number  46.
 Defaulting to unpruned grid for atomic number  46.
 Defaulting to unpruned grid for atomic number  46.
 Defaulting to unpruned grid for atomic number  46.
 Defaulting to unpruned grid for atomic number  46.
 Defaulting to unpruned grid for atomic number  46.
 Defaulting to unpruned grid for atomic number  46.
 Defaulting to unpruned grid for atomic number  46.
 Defaulting to unpruned grid for atomic number  46.
 Defaulting to unpruned grid for atomic number  46.
 Defaulting to unpruned grid for atomic number  46.
 Defaulting to unpruned grid for atomic number  46.
 Defaulting to unpruned grid for atomic number  46.
 Defaulting to unpruned grid for atomic number  46.
 Defaulting to unpruned grid for atomic number  46.
 End of G2Drv F.D. properties file   721 does not exist.
 End of G2Drv F.D. properties file   722 does not exist.
 End of G2Drv F.D. properties file   788 does not exist.
          IDoAtm=11111111111111111111111111111111111111111111111111
          IDoAtm=111111111111111
          Differentiating once with respect to electric field.
                with respect to dipole field.
          Differentiating once with respect to nuclear coordinates.
 Defaulting to unpruned grid for atomic number  46.
 CalDSu exits because no D1Ps are significant.
 Defaulting to unpruned grid for atomic number  46.
 Defaulting to unpruned grid for atomic number  46.
 Defaulting to unpruned grid for atomic number  46.
 Defaulting to unpruned grid for atomic number  46.
 Defaulting to unpruned grid for atomic number  46.
 Defaulting to unpruned grid for atomic number  46.
 Defaulting to unpruned grid for atomic number  46.
 Defaulting to unpruned grid for atomic number  46.
 Defaulting to unpruned grid for atomic number  46.
 Defaulting to unpruned grid for atomic number  46.
 Defaulting to unpruned grid for atomic number  46.
 Defaulting to unpruned grid for atomic number  46.
 Defaulting to unpruned grid for atomic number  46.
 Defaulting to unpruned grid for atomic number  46.
 Defaulting to unpruned grid for atomic number  46.
 Defaulting to unpruned grid for atomic number  46.
 Defaulting to unpruned grid for atomic number  46.
 Defaulting to unpruned grid for atomic number  46.
 Defaulting to unpruned grid for atomic number  46.
 Defaulting to unpruned grid for atomic number  46.
 Defaulting to unpruned grid for atomic number  46.
 Defaulting to unpruned grid for atomic number  46.
 Defaulting to unpruned grid for atomic number  46.
 Defaulting to unpruned grid for atomic number  46.
 Defaulting to unpruned grid for atomic number  46.
 Defaulting to unpruned grid for atomic number  46.
 Defaulting to unpruned grid for atomic number  46.
 Defaulting to unpruned grid for atomic number  46.
          There are   198 degrees of freedom in the 1st order CPHF.  IDoFFX=6 NUNeed=     3.
    198 vectors produced by pass  0 Test12= 6.35D-14 1.00D-09 XBig12= 4.48D+02 6.35D+00.
 AX will form    84 AO Fock derivatives at one time.
    198 vectors produced by pass  1 Test12= 6.35D-14 1.00D-09 XBig12= 7.79D+01 1.35D+00.
    195 vectors produced by pass  2 Test12= 6.35D-14 1.00D-09 XBig12= 1.25D+00 8.67D-02.
    195 vectors produced by pass  3 Test12= 6.35D-14 1.00D-09 XBig12= 9.38D-03 7.68D-03.
    195 vectors produced by pass  4 Test12= 6.35D-14 1.00D-09 XBig12= 5.06D-05 4.78D-04.
    195 vectors produced by pass  5 Test12= 6.35D-14 1.00D-09 XBig12= 1.47D-07 2.36D-05.
    194 vectors produced by pass  6 Test12= 6.35D-14 1.00D-09 XBig12= 3.32D-10 9.37D-07.
    193 vectors produced by pass  7 Test12= 6.35D-14 1.00D-09 XBig12= 2.50D-12 5.76D-08.
    193 vectors produced by pass  8 Test12= 6.35D-14 1.00D-09 XBig12= 1.99D-13 2.04D-08.
    193 vectors produced by pass  9 Test12= 6.35D-14 1.00D-09 XBig12= 6.88D-14 1.14D-08.
    190 vectors produced by pass 10 Test12= 6.35D-14 1.00D-09 XBig12= 9.45D-14 1.62D-08.
    175 vectors produced by pass 11 Test12= 6.35D-14 1.00D-09 XBig12= 5.17D-14 9.26D-09.
    126 vectors produced by pass 12 Test12= 6.35D-14 1.00D-09 XBig12= 3.03D-14 6.46D-09.
     68 vectors produced by pass 13 Test12= 6.35D-14 1.00D-09 XBig12= 2.26D-14 6.08D-09.
     40 vectors produced by pass 14 Test12= 6.35D-14 1.00D-09 XBig12= 7.03D-15 2.81D-09.
     40 vectors produced by pass 15 Test12= 6.35D-14 1.00D-09 XBig12= 1.35D-14 3.93D-09.
     40 vectors produced by pass 16 Test12= 6.35D-14 1.00D-09 XBig12= 7.71D-15 3.00D-09.
     40 vectors produced by pass 17 Test12= 6.35D-14 1.00D-09 XBig12= 1.19D-14 3.99D-09.
     40 vectors produced by pass 18 Test12= 6.35D-14 1.00D-09 XBig12= 7.76D-15 2.96D-09.
     40 vectors produced by pass 19 Test12= 6.35D-14 1.00D-09 XBig12= 1.22D-14 3.93D-09.
     40 vectors produced by pass 20 Test12= 6.35D-14 1.00D-09 XBig12= 7.59D-15 2.92D-09.
     40 vectors produced by pass 21 Test12= 6.35D-14 1.00D-09 XBig12= 6.18D-15 2.79D-09.
     40 vectors produced by pass 22 Test12= 6.35D-14 1.00D-09 XBig12= 7.70D-15 3.22D-09.
     40 vectors produced by pass 23 Test12= 6.35D-14 1.00D-09 XBig12= 5.82D-15 2.77D-09.
     40 vectors produced by pass 24 Test12= 6.35D-14 1.00D-09 XBig12= 5.53D-15 2.35D-09.
     40 vectors produced by pass 25 Test12= 6.35D-14 1.00D-09 XBig12= 6.47D-15 3.08D-09.
     40 vectors produced by pass 26 Test12= 6.35D-14 1.00D-09 XBig12= 3.71D-15 2.45D-09.
     40 vectors produced by pass 27 Test12= 6.35D-14 1.00D-09 XBig12= 4.86D-15 2.30D-09.
     31 vectors produced by pass 28 Test12= 6.35D-14 1.00D-09 XBig12= 2.53D-15 1.77D-09.
     31 vectors produced by pass 29 Test12= 6.35D-14 1.00D-09 XBig12= 5.84D-15 2.84D-09.
     28 vectors produced by pass 30 Test12= 6.35D-14 1.00D-09 XBig12= 2.59D-15 1.75D-09.
     27 vectors produced by pass 31 Test12= 6.35D-14 1.00D-09 XBig12= 2.82D-15 1.81D-09.
     27 vectors produced by pass 32 Test12= 6.35D-14 1.00D-09 XBig12= 4.34D-15 2.12D-09.
     27 vectors produced by pass 33 Test12= 6.35D-14 1.00D-09 XBig12= 3.05D-15 1.94D-09.
     22 vectors produced by pass 34 Test12= 6.35D-14 1.00D-09 XBig12= 2.39D-15 1.50D-09.
     22 vectors produced by pass 35 Test12= 6.35D-14 1.00D-09 XBig12= 4.02D-15 2.01D-09.
     18 vectors produced by pass 36 Test12= 6.35D-14 1.00D-09 XBig12= 2.17D-15 1.65D-09.
     18 vectors produced by pass 37 Test12= 6.35D-14 1.00D-09 XBig12= 4.53D-15 2.33D-09.
     18 vectors produced by pass 38 Test12= 6.35D-14 1.00D-09 XBig12= 3.09D-15 1.71D-09.
     18 vectors produced by pass 39 Test12= 6.35D-14 1.00D-09 XBig12= 3.76D-15 1.94D-09.
     13 vectors produced by pass 40 Test12= 6.35D-14 1.00D-09 XBig12= 1.79D-15 1.51D-09.
     13 vectors produced by pass 41 Test12= 6.35D-14 1.00D-09 XBig12= 2.65D-15 1.74D-09.
     13 vectors produced by pass 42 Test12= 6.35D-14 1.00D-09 XBig12= 4.82D-15 2.71D-09.
     13 vectors produced by pass 43 Test12= 6.35D-14 1.00D-09 XBig12= 4.71D-15 2.15D-09.
     13 vectors produced by pass 44 Test12= 6.35D-14 1.00D-09 XBig12= 2.00D-15 1.48D-09.
     13 vectors produced by pass 45 Test12= 6.35D-14 1.00D-09 XBig12= 2.63D-15 1.77D-09.
      2 vectors produced by pass 46 Test12= 6.35D-14 1.00D-09 XBig12= 1.14D-15 1.13D-09.
 InvSVY:  IOpt=1 It=  1 EMax= 2.13D-14
 Solved reduced A of dimension  3435 with   198 vectors.
 Isotropic polarizability for W=    0.000000      345.55 Bohr**3.
 End of Minotr F.D. properties file   721 does not exist.
 End of Minotr F.D. properties file   722 does not exist.
 End of Minotr F.D. properties file   788 does not exist.

 **********************************************************************

            Population analysis using the SCF density.

 **********************************************************************

 Orbital symmetries:
       Occupied  (A) (A) (A) (A) (A) (A) (A) (A) (A) (A) (A) (A)
                 (A) (A) (A) (A) (A) (A) (A) (A) (A) (A) (A) (A)
                 (A) (A) (A) (A) (A) (A) (A) (A) (A) (A) (A) (A)
                 (A) (A) (A) (A) (A) (A) (A) (A) (A) (A) (A) (A)
                 (A) (A) (A) (A) (A) (A) (A) (A) (A) (A) (A) (A)
                 (A) (A) (A) (A) (A) (A) (A) (A) (A) (A) (A) (A)
                 (A) (A) (A) (A) (A) (A) (A) (A) (A) (A) (A) (A)
                 (A) (A) (A) (A) (A) (A) (A) (A) (A) (A) (A) (A)
                 (A) (A) (A) (A) (A) (A) (A) (A) (A) (A) (A) (A)
                 (A) (A) (A) (A) (A) (A) (A) (A) (A) (A) (A) (A)
                 (A) (A) (A) (A) (A)
       Virtual   (A) (A) (A) (A) (A) (A) (A) (A) (A) (A) (A) (A)
                 (A) (A) (A) (A) (A) (A) (A) (A) (A) (A) (A) (A)
                 (A) (A) (A) (A) (A) (A) (A) (A) (A) (A) (A) (A)
                 (A) (A) (A) (A) (A) (A) (A) (A) (A) (A) (A) (A)
                 (A) (A) (A) (A) (A) (A) (A) (A) (A) (A) (A) (A)
                 (A) (A) (A) (A) (A) (A) (A) (A) (A) (A) (A) (A)
                 (A) (A) (A) (A) (A) (A) (A) (A) (A) (A) (A) (A)
                 (A) (A) (A) (A) (A) (A) (A) (A) (A) (A) (A) (A)
                 (A) (A) (A) (A) (A) (A) (A) (A) (A) (A) (A) (A)
                 (A) (A) (A) (A) (A) (A) (A) (A) (A) (A) (A) (A)
                 (A) (A) (A) (A) (A) (A) (A) (A) (A) (A) (A) (A)
                 (A) (A) (A) (A) (A) (A) (A) (A) (A) (A) (A) (A)
                 (A) (A) (A) (A) (A) (A) (A) (A) (A) (A) (A) (A)
                 (A) (A) (A) (A) (A) (A) (A) (A) (A) (A) (A) (A)
                 (A) (A) (A) (A) (A) (A) (A) (A) (A) (A) (A) (A)
                 (A) (A) (A) (A) (A) (A) (A) (A) (A) (A) (A) (A)
                 (A) (A) (A) (A) (A) (A) (A) (A) (A) (A) (A) (A)
                 (A) (A) (A) (A) (A) (A) (A) (A) (A) (A) (A) (A)
                 (A) (A) (A) (A) (A) (A) (A) (A) (A) (A) (A) (A)
                 (A) (A) (A) (A) (A) (A) (A) (A) (A) (A) (A) (A)
                 (A) (A) (A) (A) (A) (A) (A) (A) (A) (A) (A) (A)
                 (A) (A) (A) (A) (A) (A) (A) (A) (A) (A) (A) (A)
                 (A) (A) (A) (A) (A) (A) (A) (A) (A) (A) (A) (A)
                 (A) (A) (A) (A) (A) (A) (A) (A) (A) (A) (A) (A)
                 (A) (A) (A) (A) (A) (A) (A) (A) (A) (A) (A) (A)
                 (A) (A) (A) (A) (A) (A) (A) (A) (A) (A) (A) (A)
                 (A) (A) (A) (A) (A) (A) (A) (A) (A) (A) (A) (A)
                 (A) (A) (A) (A) (A) (A) (A) (A) (A) (A) (A) (A)
                 (A) (A) (A) (A) (A) (A) (A) (A) (A) (A) (A) (A)
                 (A) (A) (A) (A) (A) (A) (A) (A) (A) (A) (A) (A)
                 (A) (A) (A) (A) (A) (A) (A) (A) (A) (A) (A) (A)
                 (A) (A) (A) (A) (A) (A) (A) (A) (A) (A) (A) (A)
                 (A) (A) (A) (A) (A) (A) (A) (A) (A) (A) (A) (A)
                 (A) (A) (A) (A) (A) (A) (A) (A) (A) (A) (A) (A)
                 (A) (A) (A) (A) (A) (A) (A) (A) (A) (A) (A) (A)
                 (A) (A) (A) (A) (A) (A) (A) (A) (A) (A) (A) (A)
                 (A) (A) (A) (A) (A) (A) (A) (A) (A) (A) (A) (A)
                 (A) (A) (A) (A) (A) (A) (A) (A) (A) (A) (A) (A)
                 (A) (A) (A) (A) (A) (A) (A) (A) (A) (A) (A) (A)
                 (A) (A) (A) (A) (A) (A) (A) (A) (A) (A) (A) (A)
                 (A) (A) (A) (A) (A) (A) (A) (A) (A) (A) (A) (A)
                 (A) (A) (A) (A) (A) (A) (A) (A) (A) (A) (A) (A)
                 (A) (A) (A) (A)
 The electronic state is 1-A.
 Alpha  occ. eigenvalues -- -101.85087 -19.41343 -19.34620 -19.32429 -14.58617
 Alpha  occ. eigenvalues --  -14.54693 -10.49561 -10.49468 -10.45638 -10.44231
 Alpha  occ. eigenvalues --  -10.43054 -10.42569 -10.41817 -10.41765 -10.41323
 Alpha  occ. eigenvalues --  -10.41203 -10.40957 -10.40937 -10.40235 -10.37852
 Alpha  occ. eigenvalues --  -10.37160 -10.37051 -10.36468 -10.36081 -10.35240
 Alpha  occ. eigenvalues --  -10.35186 -10.35120 -10.33612 -10.33545 -10.33475
 Alpha  occ. eigenvalues --   -9.72349  -7.43603  -7.42588  -7.42521  -3.46273
 Alpha  occ. eigenvalues --   -2.20567  -2.20408  -2.17454  -1.26527  -1.16476
 Alpha  occ. eigenvalues --   -1.16215  -1.13733  -1.06984  -1.01901  -0.97734
 Alpha  occ. eigenvalues --   -0.97180  -0.95784  -0.95542  -0.92345  -0.90123
 Alpha  occ. eigenvalues --   -0.87876  -0.87391  -0.85076  -0.81874  -0.81436
 Alpha  occ. eigenvalues --   -0.80419  -0.80064  -0.79508  -0.79201  -0.77484
 Alpha  occ. eigenvalues --   -0.76558  -0.72517  -0.72284  -0.71072  -0.68673
 Alpha  occ. eigenvalues --   -0.66926  -0.65905  -0.65714  -0.65251  -0.64579
 Alpha  occ. eigenvalues --   -0.63388  -0.61949  -0.60864  -0.60681  -0.59703
 Alpha  occ. eigenvalues --   -0.59559  -0.59070  -0.58906  -0.57888  -0.57738
 Alpha  occ. eigenvalues --   -0.57500  -0.56795  -0.56501  -0.55525  -0.54910
 Alpha  occ. eigenvalues --   -0.54829  -0.54014  -0.53572  -0.53435  -0.53142
 Alpha  occ. eigenvalues --   -0.52407  -0.52068  -0.51784  -0.51568  -0.51049
 Alpha  occ. eigenvalues --   -0.50735  -0.50630  -0.50130  -0.49545  -0.49133
 Alpha  occ. eigenvalues --   -0.48844  -0.48528  -0.48326  -0.48011  -0.47563
 Alpha  occ. eigenvalues --   -0.47245  -0.46790  -0.46606  -0.46396  -0.45673
 Alpha  occ. eigenvalues --   -0.45475  -0.45168  -0.44191  -0.43870  -0.43516
 Alpha  occ. eigenvalues --   -0.42941  -0.41506  -0.40675  -0.40646  -0.40292
 Alpha  occ. eigenvalues --   -0.39379  -0.38075  -0.37290  -0.35822  -0.35626
 Alpha virt. eigenvalues --   -0.19894  -0.18874  -0.17261  -0.16214  -0.12988
 Alpha virt. eigenvalues --   -0.11999  -0.11636  -0.11052  -0.10579  -0.10456
 Alpha virt. eigenvalues --   -0.09925  -0.09766  -0.09695  -0.09461  -0.09174
 Alpha virt. eigenvalues --   -0.08732  -0.08533  -0.08012  -0.07790  -0.07496
 Alpha virt. eigenvalues --   -0.07292  -0.07082  -0.06579  -0.06270  -0.06002
 Alpha virt. eigenvalues --   -0.05835  -0.05573  -0.05245  -0.04988  -0.04895
 Alpha virt. eigenvalues --   -0.04482  -0.04198  -0.04021  -0.03822  -0.03720
 Alpha virt. eigenvalues --   -0.03277  -0.02973  -0.02659  -0.02522  -0.02237
 Alpha virt. eigenvalues --   -0.02138  -0.01765  -0.01680  -0.01307  -0.00957
 Alpha virt. eigenvalues --   -0.00647  -0.00598  -0.00259  -0.00180   0.00332
 Alpha virt. eigenvalues --    0.00398   0.00512   0.00596   0.01038   0.01324
 Alpha virt. eigenvalues --    0.01533   0.01799   0.02084   0.02142   0.02362
 Alpha virt. eigenvalues --    0.02664   0.02835   0.03338   0.03592   0.03798
 Alpha virt. eigenvalues --    0.03977   0.04206   0.04254   0.04397   0.04553
 Alpha virt. eigenvalues --    0.04830   0.04959   0.05275   0.05468   0.05790
 Alpha virt. eigenvalues --    0.06034   0.06176   0.06540   0.06896   0.07052
 Alpha virt. eigenvalues --    0.07450   0.07532   0.07765   0.07805   0.08213
 Alpha virt. eigenvalues --    0.08343   0.08476   0.08722   0.09061   0.09137
 Alpha virt. eigenvalues --    0.09455   0.09562   0.09772   0.09847   0.09888
 Alpha virt. eigenvalues --    0.10142   0.10608   0.10761   0.10888   0.11103
 Alpha virt. eigenvalues --    0.11330   0.11520   0.11735   0.11788   0.12041
 Alpha virt. eigenvalues --    0.12427   0.12511   0.12789   0.12962   0.13027
 Alpha virt. eigenvalues --    0.13264   0.13417   0.13617   0.14032   0.14207
 Alpha virt. eigenvalues --    0.14307   0.14379   0.14544   0.14889   0.15026
 Alpha virt. eigenvalues --    0.15192   0.15263   0.15642   0.15937   0.16280
 Alpha virt. eigenvalues --    0.16641   0.16784   0.16893   0.17167   0.17390
 Alpha virt. eigenvalues --    0.17688   0.17897   0.18085   0.18425   0.18529
 Alpha virt. eigenvalues --    0.18672   0.19204   0.19564   0.19820   0.19961
 Alpha virt. eigenvalues --    0.20344   0.20736   0.20914   0.20945   0.21423
 Alpha virt. eigenvalues --    0.21504   0.21974   0.22247   0.22273   0.22686
 Alpha virt. eigenvalues --    0.22981   0.23212   0.23450   0.23945   0.24190
 Alpha virt. eigenvalues --    0.24581   0.24825   0.25027   0.25451   0.25742
 Alpha virt. eigenvalues --    0.25895   0.26156   0.26502   0.26689   0.27269
 Alpha virt. eigenvalues --    0.27510   0.28342   0.28480   0.29235   0.29586
 Alpha virt. eigenvalues --    0.29723   0.29894   0.30430   0.31064   0.31324
 Alpha virt. eigenvalues --    0.31655   0.32338   0.32881   0.33063   0.33330
 Alpha virt. eigenvalues --    0.34260   0.34301   0.34911   0.35331   0.35811
 Alpha virt. eigenvalues --    0.37063   0.37289   0.37994   0.38895   0.39427
 Alpha virt. eigenvalues --    0.40221   0.40607   0.42396   0.43537   0.44426
 Alpha virt. eigenvalues --    0.45844   0.46381   0.48347   0.49931   0.53466
 Alpha virt. eigenvalues --    0.53910   0.54508   0.55492   0.56042   0.56754
 Alpha virt. eigenvalues --    0.57332   0.57559   0.57935   0.58830   0.59602
 Alpha virt. eigenvalues --    0.59870   0.60196   0.60566   0.61232   0.61543
 Alpha virt. eigenvalues --    0.61799   0.62398   0.62650   0.63116   0.63407
 Alpha virt. eigenvalues --    0.64313   0.64593   0.65071   0.65524   0.65603
 Alpha virt. eigenvalues --    0.66201   0.67018   0.67138   0.67463   0.67896
 Alpha virt. eigenvalues --    0.68310   0.68737   0.69479   0.69991   0.70155
 Alpha virt. eigenvalues --    0.70491   0.70889   0.71326   0.71619   0.72448
 Alpha virt. eigenvalues --    0.72642   0.73642   0.73785   0.74370   0.74758
 Alpha virt. eigenvalues --    0.75244   0.76469   0.76531   0.76873   0.77809
 Alpha virt. eigenvalues --    0.77860   0.78297   0.79260   0.79323   0.79449
 Alpha virt. eigenvalues --    0.80040   0.80713   0.81089   0.81662   0.82394
 Alpha virt. eigenvalues --    0.82611   0.83378   0.83811   0.84456   0.84734
 Alpha virt. eigenvalues --    0.85904   0.86196   0.86528   0.86730   0.87844
 Alpha virt. eigenvalues --    0.87898   0.88551   0.88747   0.89071   0.90167
 Alpha virt. eigenvalues --    0.90685   0.91100   0.91887   0.92459   0.93026
 Alpha virt. eigenvalues --    0.93102   0.93505   0.93863   0.94826   0.95116
 Alpha virt. eigenvalues --    0.95710   0.96158   0.96295   0.96945   0.97305
 Alpha virt. eigenvalues --    0.97820   0.99063   0.99414   1.00041   1.00574
 Alpha virt. eigenvalues --    1.00928   1.01741   1.01946   1.02147   1.03714
 Alpha virt. eigenvalues --    1.04016   1.04415   1.04646   1.05346   1.05834
 Alpha virt. eigenvalues --    1.06106   1.06955   1.07314   1.07647   1.08651
 Alpha virt. eigenvalues --    1.09592   1.09745   1.10138   1.11031   1.11467
 Alpha virt. eigenvalues --    1.12533   1.12733   1.13901   1.14104   1.15288
 Alpha virt. eigenvalues --    1.15676   1.16037   1.17451   1.19222   1.19427
 Alpha virt. eigenvalues --    1.20852   1.21182   1.22628   1.22866   1.23563
 Alpha virt. eigenvalues --    1.24187   1.25209   1.25506   1.26095   1.26927
 Alpha virt. eigenvalues --    1.28590   1.29206   1.29769   1.29969   1.30269
 Alpha virt. eigenvalues --    1.31361   1.31885   1.32384   1.33765   1.34873
 Alpha virt. eigenvalues --    1.35520   1.36226   1.37335   1.37671   1.38608
 Alpha virt. eigenvalues --    1.39162   1.39629   1.42023   1.43480   1.43829
 Alpha virt. eigenvalues --    1.44025   1.44954   1.45624   1.46362   1.47665
 Alpha virt. eigenvalues --    1.49112   1.50546   1.51169   1.51459   1.53342
 Alpha virt. eigenvalues --    1.53958   1.55988   1.56984   1.57509   1.58882
 Alpha virt. eigenvalues --    1.59266   1.59981   1.60961   1.62439   1.64475
 Alpha virt. eigenvalues --    1.64926   1.65719   1.66772   1.68186   1.68729
 Alpha virt. eigenvalues --    1.69460   1.70330   1.71206   1.72320   1.72759
 Alpha virt. eigenvalues --    1.73686   1.74134   1.74820   1.75560   1.76573
 Alpha virt. eigenvalues --    1.77145   1.77528   1.78083   1.78564   1.79197
 Alpha virt. eigenvalues --    1.79770   1.81144   1.82022   1.82277   1.82761
 Alpha virt. eigenvalues --    1.84070   1.84227   1.85373   1.86212   1.86841
 Alpha virt. eigenvalues --    1.87368   1.87859   1.88757   1.90367   1.91185
 Alpha virt. eigenvalues --    1.91564   1.92477   1.93555   1.94010   1.94939
 Alpha virt. eigenvalues --    1.95532   1.96852   1.97157   1.97807   1.98332
 Alpha virt. eigenvalues --    1.99032   1.99598   2.00906   2.01179   2.01737
 Alpha virt. eigenvalues --    2.02475   2.02937   2.04295   2.04389   2.05202
 Alpha virt. eigenvalues --    2.05682   2.07563   2.08103   2.09241   2.10144
 Alpha virt. eigenvalues --    2.10820   2.11213   2.11984   2.12854   2.13188
 Alpha virt. eigenvalues --    2.13696   2.13839   2.14370   2.15240   2.15936
 Alpha virt. eigenvalues --    2.16576   2.17258   2.17680   2.18848   2.18997
 Alpha virt. eigenvalues --    2.20967   2.22167   2.22507   2.22992   2.24484
 Alpha virt. eigenvalues --    2.26328   2.27040   2.27959   2.28638   2.30419
 Alpha virt. eigenvalues --    2.31638   2.32905   2.36438   2.37671   2.38278
 Alpha virt. eigenvalues --    2.39218   2.39523   2.39976   2.40665   2.43082
 Alpha virt. eigenvalues --    2.44292   2.45676   2.46003   2.47889   2.48705
 Alpha virt. eigenvalues --    2.49869   2.51950   2.53378   2.53781   2.54472
 Alpha virt. eigenvalues --    2.55525   2.58351   2.60319   2.60480   2.62706
 Alpha virt. eigenvalues --    2.64875   2.67105   2.69218   2.69953   2.70788
 Alpha virt. eigenvalues --    2.71583   2.73091   2.73337   2.75757   2.77217
 Alpha virt. eigenvalues --    2.79368   2.80762   2.82474   2.86882   2.91258
 Alpha virt. eigenvalues --    2.92687   2.97456   3.00316   3.04962   3.13555
 Alpha virt. eigenvalues --    3.16338   3.26449  21.22160
          Condensed to atoms (all electrons):
 Mulliken charges:
               1
     1  C   -0.015544
     2  C   -0.497060
     3  C   -0.228827
     4  C   -0.150593
     5  H    0.254350
     6  C   -0.223856
     7  N    0.198175
     8  H    0.250373
     9  H    0.263799
    10  Cl   0.375483
    11  C   -0.398573
    12  O   -0.212383
    13  N    0.284415
    14  C   -0.273615
    15  H    0.239182
    16  H    0.241236
    17  C   -0.242374
    18  C   -0.607950
    19  H    0.232501
    20  Pd  -0.316040
    21  C   -0.405884
    22  C   -0.381443
    23  C    0.295564
    24  C   -0.629009
    25  C   -0.440901
    26  H    0.210576
    27  H    0.243162
    28  C   -0.634496
    29  H    0.254624
    30  H    0.239419
    31  C    0.107425
    32  C   -0.901162
    33  H    0.255089
    34  C    0.295639
    35  H    0.188426
    36  H    0.195235
    37  H    0.278238
    38  H    0.252841
    39  O   -0.638177
    40  H    0.527816
    41  C   -0.392760
    42  H    0.274303
    43  H    0.228891
    44  H    0.241423
    45  C    0.161664
    46  O   -0.335176
    47  H    0.238035
    48  H    0.234422
    49  H    0.230202
    50  C   -0.180705
    51  H    0.253529
    52  H    0.221903
    53  H    0.262265
    54  C   -0.241440
    55  H    0.237673
    56  H    0.226510
    57  H    0.222451
    58  C   -0.321074
    59  H    0.231579
    60  H    0.239341
    61  H    0.223218
    62  C   -0.398661
    63  H    0.235071
    64  H    0.190327
    65  H    0.231325
 Sum of Mulliken charges =   1.00000
 Mulliken charges with hydrogens summed into heavy atoms:
               1
     1  C   -0.015544
     2  C   -0.233260
     3  C    0.021546
     4  C    0.103757
     6  C   -0.223856
     7  N    0.198175
    10  Cl   0.375483
    11  C   -0.398573
    12  O   -0.212383
    13  N    0.284415
    14  C    0.206804
    17  C   -0.009873
    18  C   -0.607950
    20  Pd  -0.316040
    21  C    0.084991
    22  C    0.063555
    23  C    0.768928
    24  C   -0.629009
    25  C   -0.440901
    28  C    0.137784
    31  C    0.107425
    32  C   -0.646073
    34  C    0.679300
    39  O   -0.110360
    41  C    0.351857
    45  C    0.161664
    46  O   -0.335176
    50  C    0.556991
    54  C    0.445195
    58  C    0.373064
    62  C    0.258062
 APT charges:
               1
     1  C    0.139912
     2  C   -0.171588
     3  C    0.198878
     4  C   -0.166289
     5  H    0.090027
     6  C    0.523918
     7  N   -0.454273
     8  H    0.071549
     9  H    0.103249
    10  Cl  -0.268099
    11  C    0.869317
    12  O   -0.732210
    13  N   -0.689980
    14  C    0.312629
    15  H    0.033724
    16  H    0.001701
    17  C    0.201423
    18  C    0.105802
    19  H   -0.019067
    20  Pd   0.176023
    21  C   -0.068330
    22  C    0.122705
    23  C   -0.106654
    24  C    0.360087
    25  C   -0.456135
    26  H   -0.032134
    27  H    0.022275
    28  C   -0.036436
    29  H    0.023982
    30  H    0.037274
    31  C    0.270742
    32  C    0.244972
    33  H   -0.007665
    34  C    0.502530
    35  H   -0.043668
    36  H   -0.053521
    37  H    0.036870
    38  H    0.019305
    39  O   -0.694320
    40  H    0.286124
    41  C   -0.109800
    42  H    0.019889
    43  H    0.030014
    44  H    0.021331
    45  C    1.022238
    46  O   -0.792154
    47  H    0.011966
    48  H   -0.023092
    49  H    0.000594
    50  C   -0.010649
    51  H    0.035327
    52  H    0.005489
    53  H    0.028721
    54  C   -0.003015
    55  H    0.007638
    56  H   -0.011678
    57  H    0.000449
    58  C    0.016231
    59  H   -0.004182
    60  H   -0.001052
    61  H    0.002969
    62  C    0.011563
    63  H   -0.007413
    64  H   -0.010027
    65  H    0.003993
 Sum of APT charges =   1.00000
 APT charges with hydrogens summed into heavy atoms:
               1
     1  C    0.139912
     2  C   -0.068339
     3  C    0.270428
     4  C   -0.076262
     6  C    0.523918
     7  N   -0.454273
    10  Cl  -0.268099
    11  C    0.869317
    12  O   -0.732210
    13  N   -0.689980
    14  C    0.348055
    17  C    0.182356
    18  C    0.105802
    20  Pd   0.176023
    21  C   -0.037058
    22  C    0.067478
    23  C   -0.083786
    24  C    0.360087
    25  C   -0.456135
    28  C    0.061691
    31  C    0.270742
    32  C    0.237307
    34  C    0.405341
    39  O   -0.408196
    41  C   -0.038566
    45  C    1.022238
    46  O   -0.792154
    50  C    0.058888
    54  C   -0.006605
    58  C    0.013966
    62  C   -0.001885
 Electronic spatial extent (au):  <R**2>=          12947.7479
 Charge=              1.0000 electrons
 Dipole moment (field-independent basis, Debye):
    X=             -4.9296    Y=              1.8948    Z=              0.0322  Tot=              5.2813
 Quadrupole moment (field-independent basis, Debye-Ang):
   XX=           -158.1565   YY=           -158.7666   ZZ=           -196.2998
   XY=             -5.7941   XZ=            -22.0138   YZ=              9.8445
 Traceless Quadrupole moment (field-independent basis, Debye-Ang):
   XX=             12.9178   YY=             12.3077   ZZ=            -25.2255
   XY=             -5.7941   XZ=            -22.0138   YZ=              9.8445
 Octapole moment (field-independent basis, Debye-Ang**2):
  XXX=           -234.0855  YYY=            -16.6372  ZZZ=            -12.6024  XYY=            -19.7006
  XXY=             48.3094  XXZ=            -22.7934  XZZ=            -42.9863  YZZ=             -5.5693
  YYZ=             12.5848  XYZ=              2.6408
 Hexadecapole moment (field-independent basis, Debye-Ang**3):
 XXXX=          -7479.3875 YYYY=          -6312.5942 ZZZZ=          -2054.9433 XXXY=           -120.5646
 XXXZ=           -426.0954 YYYX=            -23.7350 YYYZ=             96.2646 ZZZX=            -45.4742
 ZZZY=             15.8688 XXYY=          -2038.1317 XXZZ=          -1722.9849 YYZZ=          -1347.5944
 XXYZ=            117.1226 YYXZ=           -137.0973 ZZXY=             86.1600
 N-N= 3.978828483532D+03 E-N=-1.224402593734D+04  KE= 1.766329394055D+03
  Exact polarizability: 415.342  -2.980 344.111  11.869  28.183 277.185
 Approx polarizability: 592.373   5.061 490.913  48.816  63.867 462.911
   1 Symmetry operations used in ECPInt.
 ECPInt:  NShTT=   25878 NPrTT=  135610 LenC2=   23166 LenP2D=   72168.
 LDataN:  DoStor=T MaxTD1= 7 Len=  274
 Calling FoFJK, ICntrl=    100127 FMM=F ISym2X=0 I1Cent= 0 IOpClX= 0 NMat=1 NMatS=1 NMatT=0.
 Defaulting to unpruned grid for atomic number  46.
 Defaulting to unpruned grid for atomic number  46.
 Defaulting to unpruned grid for atomic number  46.
 Defaulting to unpruned grid for atomic number  46.
 Defaulting to unpruned grid for atomic number  46.
 Defaulting to unpruned grid for atomic number  46.
 Defaulting to unpruned grid for atomic number  46.
 Defaulting to unpruned grid for atomic number  46.
 Defaulting to unpruned grid for atomic number  46.
 Defaulting to unpruned grid for atomic number  46.
 Defaulting to unpruned grid for atomic number  46.
 Defaulting to unpruned grid for atomic number  46.
 Defaulting to unpruned grid for atomic number  46.
 Defaulting to unpruned grid for atomic number  46.
 Defaulting to unpruned grid for atomic number  46.
 Defaulting to unpruned grid for atomic number  46.
 Defaulting to unpruned grid for atomic number  46.
 Defaulting to unpruned grid for atomic number  46.
 Defaulting to unpruned grid for atomic number  46.
 Defaulting to unpruned grid for atomic number  46.
 Defaulting to unpruned grid for atomic number  46.
 Defaulting to unpruned grid for atomic number  46.
 Defaulting to unpruned grid for atomic number  46.
 Defaulting to unpruned grid for atomic number  46.
 Defaulting to unpruned grid for atomic number  46.
 Defaulting to unpruned grid for atomic number  46.
 Defaulting to unpruned grid for atomic number  46.
 Defaulting to unpruned grid for atomic number  46.
 Full mass-weighted force constant matrix:
 Low frequencies --- -247.1287   -7.5820   -0.0028   -0.0018   -0.0017   11.4875
 Low frequencies ---   16.4066   28.8424   41.0696
 ******    1 imaginary frequencies (negative Signs) ****** 
 Diagonal vibrational polarizability:
       80.4430709     139.9122585      72.6961474
 Harmonic frequencies (cm**-1), IR intensities (KM/Mole), Raman scattering
 activities (A**4/AMU), depolarization ratios for plane and unpolarized
 incident light, reduced masses (AMU), force constants (mDyne/A),
 and normal coordinates:
                           1         2         3         4         5
                           A         A         A         A         A
       Frequencies ---  -247.1263   27.8579   40.7597   44.0408   48.5863
    Reduced masses ---     8.0631    5.5054    9.0512    6.1701    5.5493
   Force constants ---     0.2901    0.0025    0.0089    0.0071    0.0077
    IR Intensities ---     4.3898    1.2837    3.9999    0.5363    0.3104
 Coord Atom Element:
   1     1     6         -0.01207   0.03849   0.01416  -0.00314  -0.03020
   2     1     6         -0.00138  -0.01581  -0.04786   0.06101   0.00847
   3     1     6          0.00120   0.03922   0.01264  -0.04360  -0.05788
   1     2     6         -0.00606   0.06010   0.01111   0.03192  -0.02238
   2     2     6          0.00152  -0.04064  -0.06587   0.17834  -0.01828
   3     2     6          0.00410   0.10043   0.03333  -0.16019  -0.01020
   1     3     6         -0.00646   0.05150   0.01291   0.03509  -0.03283
   2     3     6          0.00450  -0.04102  -0.05411   0.24443  -0.06365
   3     3     6          0.00301   0.15304   0.01694  -0.19462   0.07312
   1     4     6         -0.01091   0.02112   0.01697   0.00620  -0.05389
   2     4     6          0.00632  -0.01342  -0.02235   0.17048  -0.08218
   3     4     6          0.00329   0.14066  -0.01894  -0.10024   0.10429
   1     5     1         -0.01170   0.01189   0.01931   0.00868  -0.06728
   2     5     1          0.00921  -0.00939  -0.00812   0.20048  -0.12341
   3     5     1          0.00588   0.17852  -0.03254  -0.11834   0.17163
   1     6     6         -0.01106   0.00206   0.01901  -0.02926  -0.06009
   2     6     6          0.00751   0.01141  -0.00779   0.04733  -0.04802
   3     6     6          0.00186   0.07637  -0.03591   0.02151   0.04636
   1     7     7         -0.01484   0.01087   0.01566  -0.03106  -0.04379
   2     7     7          0.00665   0.00806  -0.02127   0.00444  -0.00405
   3     7     7         -0.00165   0.02724  -0.01933   0.03832  -0.03482
   1     8     1         -0.00443   0.06783   0.01096   0.06204  -0.02619
   2     8     1          0.00584  -0.06163  -0.06735   0.34283  -0.08876
   3     8     1          0.00393   0.20372   0.03260  -0.29383   0.11678
   1     9     1         -0.00551   0.08196   0.00702   0.06158  -0.00832
   2     9     1         -0.00046  -0.05928  -0.08733   0.21718  -0.00906
   3     9     1          0.00597   0.10707   0.06074  -0.22481  -0.03044
   1    10    17         -0.00621  -0.03646   0.03395  -0.08713  -0.10780
   2    10    17          0.00351   0.05184   0.02788  -0.06225  -0.07132
   3    10    17         -0.00068   0.05797  -0.07504   0.14912   0.09034
   1    11     6         -0.01242   0.03991   0.01537  -0.00119  -0.03036
   2    11     6         -0.01133  -0.01368  -0.05728   0.00791   0.02980
   3    11     6         -0.00085  -0.01027   0.02493  -0.01149  -0.08336
   1    12     8         -0.00702   0.06183   0.01696   0.00820  -0.04435
   2    12     8         -0.00937  -0.01107  -0.09225  -0.00046   0.01586
   3    12     8         -0.01277  -0.02901   0.06531  -0.00714  -0.05598
   1    13     7         -0.01529   0.01792   0.01271  -0.00510  -0.01656
   2    13     7         -0.02276  -0.01399  -0.03474  -0.01652   0.04088
   3    13     7          0.00006  -0.03260   0.00159   0.00677  -0.08008
   1    14     6         -0.00655   0.05762   0.01788   0.00529  -0.04303
   2    14     6         -0.01420  -0.00406  -0.08444  -0.03947   0.00248
   3    14     6         -0.00893  -0.07466   0.05909   0.02223  -0.00418
   1    15     1         -0.00481   0.05013   0.01220   0.03392  -0.03190
   2    15     1         -0.01533  -0.00184  -0.08113  -0.05178  -0.00198
   3    15     1         -0.01175  -0.09777   0.07135   0.03717   0.00851
   1    16     1         -0.01094   0.09157   0.02573  -0.02647  -0.07963
   2    16     1         -0.01232   0.00656  -0.09139  -0.05509   0.00412
   3    16     1         -0.00670  -0.08170   0.05098   0.02561   0.01057
   1    17     6         -0.00613   0.02235   0.02079   0.00404  -0.00266
   2    17     6         -0.01330  -0.01537  -0.05998  -0.03266   0.00241
   3    17     6         -0.00797  -0.07128   0.04170   0.01957  -0.00075
   1    18     6         -0.00737  -0.00736   0.06164   0.02123   0.12129
   2    18     6         -0.00243  -0.03004  -0.03589  -0.01856  -0.00078
   3    18     6         -0.00191  -0.08854   0.06933   0.03189   0.03529
   1    19     1         -0.00079   0.02366   0.00642  -0.00417  -0.04035
   2    19     1         -0.00508  -0.01461  -0.07443  -0.03965  -0.02605
   3    19     1         -0.01005  -0.07630   0.03389   0.01783   0.03739
   1    20    46          0.06067   0.00503  -0.01894  -0.01454  -0.00600
   2    20    46         -0.04052  -0.01164  -0.03116  -0.02654   0.02046
   3    20    46          0.01865  -0.02126  -0.02242   0.03746  -0.06376
   1    21     6          0.02013   0.02279  -0.00918   0.01219  -0.01347
   2    21     6         -0.01292   0.06234   0.05093   0.04569  -0.02636
   3    21     6         -0.00268   0.16088  -0.00532  -0.00675   0.04113
   1    22     6          0.09417   0.06334  -0.02510   0.00769   0.03375
   2    22     6          0.01471   0.01642  -0.05201   0.04075  -0.01513
   3    22     6         -0.03022   0.11383  -0.05471  -0.00822   0.02255
   1    23     6          0.07600   0.06793  -0.03072   0.00652   0.02828
   2    23     6          0.16964  -0.00878  -0.03562   0.04192   0.02196
   3    23     6         -0.04799   0.05493  -0.02451  -0.00936  -0.01811
   1    24     6          0.16636   0.00496  -0.01686   0.00545  -0.00077
   2    24     6          0.45393  -0.00476  -0.01867   0.00760   0.03560
   3    24     6         -0.08765   0.02335  -0.01991  -0.00549  -0.03495
   1    25     6          0.04858  -0.05497  -0.01472  -0.00139  -0.02602
   2    25     6          0.08880   0.00874   0.03339  -0.01408   0.03520
   3    25     6         -0.01191   0.05643  -0.03078   0.00004  -0.01962
   1    26     1          0.17566   0.04821  -0.01263   0.00984   0.05887
   2    26     1         -0.00030   0.01961  -0.05295   0.03975  -0.02025
   3    26     1         -0.05120   0.08640  -0.14608  -0.01176   0.02610
   1    27     1          0.14759   0.08651  -0.03094   0.00336   0.06379
   2    27     1          0.10224  -0.03164  -0.03715   0.05413   0.03494
   3    27     1         -0.14699   0.02296  -0.02618   0.00432  -0.02863
   1    28     6         -0.00032  -0.01462  -0.04809   0.03860   0.00586
   2    28     6          0.04654  -0.00981  -0.01736  -0.01587   0.02519
   3    28     6         -0.01835  -0.09492   0.01670  -0.10555  -0.05518
   1    29     1          0.02083  -0.02175  -0.04182   0.04284   0.01176
   2    29     1          0.22910  -0.02725  -0.01304  -0.01115   0.02472
   3    29     1         -0.01866  -0.08109   0.00090  -0.11598  -0.07178
   1    30     1         -0.02074   0.00338  -0.06442   0.03389  -0.01096
   2    30     1          0.08634   0.02770  -0.02401   0.02909   0.03180
   3    30     1         -0.02063  -0.09789   0.01724  -0.10870  -0.05555
   1    31     6         -0.14189  -0.00946  -0.04764   0.00992  -0.00064
   2    31     6         -0.11593  -0.00488  -0.01806  -0.04711   0.01667
   3    31     6         -0.00312  -0.06820   0.03263  -0.02289  -0.00403
   1    32     6         -0.35708  -0.02208  -0.03990   0.01358   0.01203
   2    32     6         -0.24453  -0.02884  -0.01333  -0.05627   0.01845
   3    32     6          0.07214  -0.06344   0.01673  -0.04785  -0.03614
   1    33     1         -0.16772  -0.03635  -0.01492   0.02464   0.03529
   2    33     1         -0.03687  -0.06193   0.00469  -0.09499   0.01601
   3    33     1          0.04140  -0.06064   0.01369  -0.04645  -0.03804
   1    34     6         -0.12000  -0.02420  -0.02733   0.01158   0.04304
   2    34     6          0.01325  -0.04090   0.05226  -0.12427   0.01970
   3    34     6         -0.00455  -0.08029   0.04724  -0.01413   0.04305
   1    35     1         -0.12877  -0.02158  -0.01039  -0.00335  -0.00134
   2    35     1         -0.00141  -0.03466   0.08297  -0.12825  -0.04600
   3    35     1          0.00143  -0.07688   0.04570   0.01526   0.06119
   1    36     1         -0.08748  -0.04006   0.01090  -0.00114   0.05797
   2    36     1          0.04060  -0.06705   0.06062  -0.15988   0.08271
   3    36     1         -0.03623  -0.05728   0.02703   0.01340  -0.00353
   1    37     1          0.18968  -0.02372  -0.03823   0.05782   0.01403
   2    37     1         -0.12112  -0.02105  -0.01850  -0.04497   0.02158
   3    37     1         -0.05521  -0.13350   0.03001  -0.13728  -0.04962
   1    38     1          0.02557   0.01704  -0.00722   0.01096  -0.01073
   2    38     1         -0.05438   0.08816   0.04669   0.05411  -0.05231
   3    38     1          0.02136   0.20389  -0.04532  -0.00951   0.06880
   1    39     8         -0.09893  -0.02103  -0.08403   0.05208   0.12559
   2    39     8          0.01844  -0.05419   0.07584  -0.15191   0.02427
   3    39     8          0.04965  -0.12733   0.08728  -0.08246   0.12935
   1    40     1         -0.14521  -0.03257  -0.07578   0.04998   0.14139
   2    40     1          0.00729  -0.07730   0.12914  -0.20460   0.00979
   3    40     1         -0.02174  -0.14709   0.10456  -0.09021   0.15239
   1    41     6         -0.09065   0.00670  -0.08424   0.01671  -0.04478
   2    41     6         -0.06021   0.04927  -0.06109   0.01707   0.00232
   3    41     6         -0.03781  -0.09131   0.05866  -0.04645   0.01526
   1    42     1         -0.12248  -0.00801  -0.06226   0.02150  -0.05746
   2    42     1         -0.05106   0.05173  -0.06593   0.01338   0.00690
   3    42     1         -0.10340  -0.13399   0.09534  -0.09817   0.04072
   1    43     1         -0.04295   0.02002  -0.10823   0.01635  -0.04496
   2    43     1         -0.01405   0.07525  -0.08863   0.03278   0.00925
   3    43     1         -0.06831  -0.08246   0.07240  -0.02053   0.02771
   1    44     1         -0.04963   0.01874  -0.10939   0.01910  -0.06272
   2    44     1         -0.04254   0.06575  -0.06448   0.05753  -0.02103
   3    44     1          0.00915  -0.07663   0.03107  -0.03976  -0.00625
   1    45     6          0.02415  -0.04711   0.00782   0.00663  -0.03225
   2    45     6         -0.02495   0.08257   0.21681   0.05216  -0.01161
   3    45     6          0.01126   0.11607  -0.07498  -0.01289   0.02503
   1    46     8          0.03017  -0.09645   0.03394   0.00714  -0.05476
   2    46     8         -0.04305   0.16901   0.54241   0.12152  -0.04894
   3    46     8          0.01177   0.12298  -0.18789  -0.03374   0.05066
   1    47     1         -0.01879   0.04463  -0.03494   0.01665  -0.03799
   2    47     1         -0.00776   0.05917   0.05481   0.04514  -0.02270
   3    47     1         -0.02157   0.18163   0.10633  -0.00346   0.04110
   1    48     1          0.07792   0.10912  -0.03672   0.00742   0.04948
   2    48     1         -0.04996  -0.00697  -0.13265   0.03780  -0.02800
   3    48     1         -0.01213   0.14596  -0.02705  -0.00721   0.03567
   1    49     1         -0.03371   0.10527  -0.05059   0.00775   0.01255
   2    49     1          0.12838  -0.01857  -0.03713   0.04963   0.02793
   3    49     1          0.12287   0.06359  -0.00934  -0.03004  -0.02589
   1    50     6          0.00977  -0.12094  -0.00753  -0.00640  -0.05751
   2    50     6          0.07501   0.00214   0.00959  -0.06622   0.05028
   3    50     6         -0.01814   0.02896  -0.02094   0.01019  -0.03716
   1    51     1          0.03089  -0.21215  -0.01277  -0.06780  -0.03129
   2    51     1          0.01987   0.06232   0.00482  -0.03056   0.02234
   3    51     1          0.06612   0.01325  -0.00953   0.00870  -0.01144
   1    52     1          0.02103  -0.13794  -0.01183  -0.02302  -0.04608
   2    52     1          0.12888  -0.09359  -0.01081  -0.14808   0.10038
   3    52     1         -0.07395  -0.00735  -0.00130   0.02767  -0.07305
   1    53     1         -0.08762  -0.06916   0.01249   0.06655  -0.12009
   2    53     1          0.01472   0.04157  -0.00315  -0.05875   0.03647
   3    53     1         -0.06319   0.06016  -0.03859   0.00056  -0.03711
   1    54     6         -0.00671  -0.03331   0.10784   0.04307   0.20011
   2    54     6         -0.00245  -0.04963   0.00074  -0.00080   0.04950
   3    54     6         -0.00088  -0.09495   0.09745   0.04457  -0.00399
   1    55     1         -0.00315  -0.05234   0.12742   0.05998   0.28036
   2    55     1          0.00115  -0.05476   0.01435   0.00869   0.04449
   3    55     1          0.00210  -0.10311   0.11036   0.05450   0.01610
   1    56     1         -0.00669  -0.02841   0.09811   0.03893   0.18912
   2    56     1         -0.00159  -0.07277   0.04153   0.01935   0.11031
   3    56     1         -0.00658  -0.08127   0.09025   0.03034  -0.06282
   1    57     1         -0.01012  -0.04064   0.13378   0.04880   0.19701
   2    57     1         -0.00495  -0.03851  -0.02270  -0.01449   0.03473
   3    57     1          0.00187  -0.10386   0.11519   0.05603   0.00993
   1    58     6         -0.00706  -0.01351   0.07601   0.02723   0.13695
   2    58     6         -0.00021  -0.00088  -0.09325  -0.04126  -0.07904
   3    58     6          0.00398  -0.11869   0.10129   0.04617   0.14229
   1    59     1         -0.00570   0.00399   0.04360   0.01519   0.08656
   2    59     1          0.00111   0.01462  -0.12110  -0.05068  -0.11418
   3    59     1          0.00660  -0.10015   0.07213   0.04146   0.17320
   1    60     1         -0.00607  -0.03479   0.10523   0.04045   0.22578
   2    60     1         -0.00098  -0.02309  -0.06532  -0.03598  -0.07941
   3    60     1          0.00382  -0.13978   0.12860   0.05394   0.17216
   1    61     1         -0.00919  -0.01403   0.09019   0.03154   0.11192
   2    61     1          0.00140   0.02988  -0.13836  -0.05290  -0.10307
   3    61     1          0.00312  -0.14207   0.13259   0.05396   0.16602
   1    62     6          0.00475  -0.00771   0.04154   0.01410   0.15754
   2    62     6          0.00246  -0.05502   0.00747   0.00730   0.02505
   3    62     6         -0.00553  -0.07027   0.04043   0.01461   0.01268
   1    63     1         -0.01247  -0.04031   0.08066   0.01047   0.22608
   2    63     1          0.01464  -0.06200   0.01920   0.02609   0.02672
   3    63     1         -0.00435  -0.08593   0.06123   0.02451   0.03798
   1    64     1          0.03105   0.01941  -0.00168   0.01420   0.12225
   2    64     1          0.02048  -0.03632  -0.02320   0.00649   0.00281
   3    64     1         -0.01228  -0.06569   0.02303  -0.00785   0.03283
   1    65     1          0.01075  -0.00240   0.03055   0.01293   0.15413
   2    65     1         -0.02030  -0.08578   0.05785   0.01188   0.06449
   3    65     1         -0.00246  -0.04391   0.01427   0.01309  -0.04747
                           6         7         8         9        10
                           A         A         A         A         A
       Frequencies ---    59.1015   77.8646   83.1061   88.9857   94.3701
    Reduced masses ---     4.6108    3.9896    4.0043    3.8770    5.0659
   Force constants ---     0.0095    0.0143    0.0163    0.0181    0.0266
    IR Intensities ---     1.4311    0.7815    2.0101    0.6845    1.5807
 Coord Atom Element:
   1     1     6         -0.02042   0.03226   0.03523  -0.03953   0.02310
   2     1     6          0.02918  -0.01500  -0.00933   0.02679   0.01468
   3     1     6         -0.00283  -0.02260   0.04004   0.03155  -0.00176
   1     2     6         -0.03786   0.02855   0.03675  -0.05407  -0.00059
   2     2     6         -0.00220  -0.02603   0.00976   0.01250  -0.01676
   3     2     6          0.01857  -0.01377   0.01462   0.03385   0.01012
   1     3     6         -0.04186   0.02661   0.04106  -0.05160  -0.00022
   2     3     6         -0.06056  -0.04539   0.03653   0.00423  -0.06098
   3     3     6          0.06070   0.00112  -0.02409   0.01649   0.01608
   1     4     6         -0.03035   0.02663   0.04135  -0.03357   0.02348
   2     4     6         -0.07488  -0.04743   0.03357   0.01774  -0.05239
   3     4     6          0.06877   0.00266  -0.02218  -0.00777  -0.00669
   1     5     1         -0.03471   0.02471   0.04534  -0.02920   0.02584
   2     5     1         -0.11528  -0.05739   0.05137   0.01782  -0.07103
   3     5     1          0.09770   0.01345  -0.04355  -0.02640  -0.01171
   1     6     6         -0.01172   0.02967   0.03768  -0.01786   0.04716
   2     6     6         -0.03187  -0.03502   0.00545   0.03419  -0.01343
   3     6     6          0.03591  -0.00911   0.01372  -0.00889  -0.02485
   1     7     7         -0.00709   0.03027   0.03179  -0.02349   0.04191
   2     7     7          0.01229  -0.02091  -0.00411   0.03312   0.00891
   3     7     7          0.00971  -0.01499   0.03587   0.01482  -0.00496
   1     8     1         -0.05541   0.02352   0.04275  -0.06277  -0.01955
   2     8     1         -0.09187  -0.05571   0.05834  -0.00861  -0.09221
   3     8     1          0.08549   0.01118  -0.05186   0.01908   0.03294
   1     9     1         -0.05047   0.02471   0.03369  -0.06881  -0.02314
   2     9     1          0.01458  -0.02064   0.00685   0.00945  -0.00856
   3     9     1          0.00785  -0.01727   0.02020   0.04758   0.01595
   1    10    17          0.00756   0.04332   0.06193   0.01649   0.10781
   2    10    17         -0.03128  -0.03678  -0.02443   0.06405   0.02475
   3    10    17          0.02449  -0.01272   0.03065  -0.05423  -0.08534
   1    11     6         -0.02149   0.03347   0.03668  -0.03984   0.02232
   2    11     6          0.05919  -0.00748  -0.03232   0.02841   0.03836
   3    11     6         -0.02170  -0.04219   0.04765   0.03499  -0.01986
   1    12     8         -0.02988   0.04681   0.05902  -0.02717   0.01807
   2    12     8          0.09219  -0.03553  -0.07401   0.06257   0.06341
   3    12     8         -0.05549  -0.01806   0.08043  -0.01384  -0.04858
   1    13     7         -0.01307   0.01943   0.01448  -0.04461   0.02059
   2    13     7          0.03354   0.01269  -0.01117  -0.01364   0.02421
   3    13     7          0.01065  -0.07583   0.00537   0.06971  -0.00988
   1    14     6         -0.02797   0.04472   0.05631  -0.02797   0.01831
   2    14     6          0.07201  -0.04521  -0.05723   0.01924   0.05487
   3    14     6         -0.01743  -0.03320   0.02251   0.00657  -0.03586
   1    15     1         -0.01598   0.05535   0.04305   0.00199   0.02199
   2    15     1          0.06514  -0.04850  -0.05077   0.00444   0.05215
   3    15     1         -0.04341  -0.00282   0.02716  -0.01969  -0.04977
   1    16     1         -0.05484   0.04414   0.09672  -0.05421   0.00897
   2    16     1          0.10132  -0.07869  -0.06949   0.03597   0.06753
   3    16     1          0.00984  -0.05229  -0.00127   0.02665  -0.02436
   1    17     6         -0.00822   0.02732   0.02047  -0.03985   0.02412
   2    17     6          0.02351  -0.00276  -0.02449  -0.03025   0.03054
   3    17     6          0.01682  -0.06307  -0.00433   0.03884  -0.01917
   1    18     6          0.04714   0.04560  -0.01294  -0.02782   0.04434
   2    18     6         -0.02770   0.04174   0.00659  -0.09479   0.01576
   3    18     6          0.00159  -0.03275   0.00599   0.00173  -0.02426
   1    19     1         -0.02342   0.01450   0.02197  -0.05288   0.02193
   2    19     1          0.01630  -0.01742  -0.02957  -0.03639   0.03200
   3    19     1          0.05966  -0.08533  -0.04383   0.06906   0.00196
   1    20    46         -0.00379  -0.03219  -0.03380   0.00938  -0.04522
   2    20    46          0.02506  -0.01105   0.01542   0.00251   0.00727
   3    20    46          0.04243   0.02142  -0.04425   0.00946   0.07073
   1    21     6         -0.03938   0.01073  -0.05742   0.04548  -0.07785
   2    21     6         -0.09023   0.17580  -0.02917   0.08268  -0.05923
   3    21     6         -0.03669  -0.03817   0.01985  -0.01245  -0.01070
   1    22     6         -0.03401  -0.06000  -0.02060   0.01162  -0.03986
   2    22     6         -0.08707   0.15673  -0.04801   0.04683   0.00701
   3    22     6         -0.03831  -0.00894  -0.00952  -0.01273   0.00259
   1    23     6         -0.04570  -0.04254  -0.02760   0.02321  -0.05411
   2    23     6         -0.01503   0.04946  -0.00025  -0.01899   0.09278
   3    23     6         -0.00152   0.01608  -0.02062  -0.00247  -0.00559
   1    24     6         -0.00697  -0.02940  -0.02980   0.01898  -0.04016
   2    24     6          0.02508   0.00929   0.05581   0.01253   0.03485
   3    24     6          0.01066   0.02798  -0.03274  -0.00989   0.00792
   1    25     6          0.02294  -0.02128  -0.04301   0.01349  -0.03927
   2    25     6          0.02780   0.01512   0.08589   0.00617  -0.02117
   3    25     6         -0.00856   0.02267  -0.03028  -0.00627   0.01235
   1    26     1          0.01726  -0.13813   0.01128  -0.03662   0.02729
   2    26     1         -0.09593   0.16919  -0.05263   0.05430  -0.00599
   3    26     1         -0.06109   0.00376  -0.04325  -0.02366   0.03195
   1    27     1         -0.03356  -0.10035  -0.00014  -0.01075  -0.02597
   2    27     1          0.00110   0.01851   0.00086  -0.08138   0.15987
[...]
 001132,0.00001020,0.00001206,0.00000490,0.00004441,0.00007916,0.000043
 12,-0.00001105,0.00005759,-0.00000578,-0.00000637,-0.00001085,-0.00000
 216,0.00004683,0.00000618,-0.00003477,-0.00001025,-0.00000132,0.000002
 49,-0.00000024,-0.00000667,-0.00000580,-0.00000268,-0.00000336,0.00000
 320,0.00001281,0.00000121,0.00002557,-0.00004841,-0.00004275,0.0000240
 0,0.00000787,0.00000390,-0.00000096,-0.00001627,-0.00003526,0.00000418
 ,-0.00000301,-0.00000436,-0.00000942,-0.00000756,0.00000641,-0.0000002
 9,0.00000959,0.00000582,0.00001119,-0.00012196,-0.00003066,-0.00011857
 ,0.00007876,0.00003200,0.00010871,0.00001395,-0.00002426,0.00005207,0.
 00001626,-0.00016580,-0.00002235,0.00002501,-0.00008447,0.00008858,0.0
 0001057,-0.00000294,0.00001818,-0.00000295,0.00000507,0.00001300,-0.00
 000506,0.00000116,-0.00000405,-0.00000315,0.00000142,0.00001215,0.0000
 2138,0.00115818,-0.00082422,0.00003153,-0.00042558,-0.00012752,0.00005
 763,-0.00003940,0.00007080,-0.00010820,0.00023228,0.00015364,0.0007262
 7,0.00076874,-0.00042446,-0.00006636,-0.00006133,0.00017736,-0.0001431
 8,-0.00012755,0.00006381,0.00022586,0.00004203,0.00006882,-0.03931761,
 -0.11243250,0.11044637,0.04335366,0.12081116,-0.00007920,-0.00000768,-
 0.00000032,0.00009368,-0.00000725,0.00000052,-0.00005152,-0.00001085,-
 0.00001437,0.00001741,0.00005075,0.00004417,-0.00000052,0.00000168,0.0
 0000126,0.00002551,-0.00006775,-0.00007581,0.00004875,0.00002615,0.000
 00773,0.00000574,0.00000057,-0.00000137,-0.00002019,0.00001616,0.00000
 191,0.00001798,0.00003490,0.00003831,-0.00017641,0.00001638,0.00004148
 ,0.00051644,-0.00016414,-0.00013365,-0.00017519,-0.00004386,0.00050094
 ,-0.00000392,0.00144207,-0.00076487,-0.00002055,-0.00005222,0.00007758
 ,0.00009139,-0.00027493,-0.00039487,-0.00090918,-0.00473770,-0.0028830
 5,0.00732441,0.01324442,-0.02283271,-0.00011902,-0.00003664,0.00027232
 ,-0.00003579,-0.00014109,-0.00008705,-0.00000790,0.00001379,0.00000998
 ,-0.00001398,-0.00005005,0.00001164,-0.00001678,-0.00009544,0.00000012
 ,0.00002868,-0.00002719,-0.00005194,-0.00001546,0.00003641,-0.00000782
 ,0.00001777,0.00002606,-0.00005200,-0.00000568,0.00004300,-0.00000118,
 0.00000697,0.00000450,-0.00000942,-0.00000342,-0.00000149,-0.00000148,
 0.00000072,0.00000044,0.00000382,-0.00000701,-0.00002063,-0.00001287,0
 .00001263,-0.00000671,0.00002086,-0.00000526,-0.00000273,0.00000190,-0
 .00001982,-0.00001049,0.00001856,0.00000097,0.00000013,-0.00000159,0.0
 0000156,0.00000101,0.00000251,-0.00000195,0.00000203,0.00000430,-0.000
 00382,0.00000069,0.00000043,0.00001988,0.00002584,-0.00001346,-0.00000
 474,-0.00000351,0.00000013,0.00001139,0.00002376,-0.00000508,0.0000015
 2,0.00000286,0.00000835,0.00000077,-0.00000411,0.00000023,-0.00000294,
 0.00000030,0.00000187,0.00006896,-0.00005734,-0.00003716,-0.00002695,0
 .00003080,0.00002753,0.00000010,-0.00000148,0.00000271,-0.00000487,0.0
 0002964,0.00000989,0.00000165,-0.00000626,0.00001659,-0.00001245,-0.00
 001586,0.00000809,0.00001395,-0.00000523,0.00002821,-0.00000795,-0.000
 00780,0.00000184,0.00000044,0.00001462,0.00000663,-0.00041641,0.001622
 89,0.00090308,0.00022245,-0.00060067,0.00038401,-0.00002711,-0.0000571
 9,-0.00004138,-0.00026232,-0.00005344,0.00037118,0.00116154,0.00111453
 ,0.00093280,-0.00008820,-0.00001551,-0.00011554,-0.00072471,-0.0005417
 0,0.00010930,0.00001211,-0.00015167,0.00044395,0.06434668,0.10902064,-
 0.22404386,-0.06943468,-0.11614052,0.24422824,0.00007499,-0.00001063,-
 0.00002389,-0.00002042,-0.00000062,-0.00001030,0.00002181,-0.00000138,
 0.00000757,0.00001598,-0.00001546,-0.00002726,0.00000311,0.00000169,-0
 .00000574,-0.00001837,0.00001960,0.00000169,0.00002239,-0.00007962,0.0
 0004505,0.00000048,0.00000090,-0.00000184,0.00000470,0.00000153,-0.000
 01025,-0.00000655,-0.00001775,-0.00000102,-0.00012407,0.00004978,-0.00
 009988,0.00003712,-0.00007052,-0.00006940,-0.00021556,-0.00002317,0.00
 053060,0.00003156,-0.00003364,0.00011492,0.00000769,-0.00004708,-0.000
 05792,-0.00000996,0.00000661,0.00004382,0.00030708,0.00036526,-0.00026
 154,0.00033332,-0.00318093,0.00098455,0.00025998,-0.00022804,0.0000238
 2,-0.00031409,0.00009961,0.00017328,-0.00014865,-0.00001991,-0.0000440
 7,0.00005499,0.00151294,-0.00035421,0.00014739,-0.00054307,0.00033789,
 -0.00044977,0.00009585,0.00021425,0.00008254,-0.00008301,0.00003699,-0
 .00020124,0.00083629,-0.00068817,-0.00064068,-0.00146865,-0.00019381,0
 .00001522,0.00002806,-0.00000153,0.00000476,-0.00001444,0.00001505,-0.
 00001802,-0.00001870,-0.00001120,-0.00006415,-0.00004683,-0.00005226,-
 0.00001220,-0.00003171,-0.00001002,0.00000977,0.00000822,-0.00000191,-
 0.00005369,0.00000782,0.00001880,0.00001956,0.00000489,-0.00000119,-0.
 00000034,0.00000727,0.00000027,0.00000747,0.00000216,-0.00001056,-0.00
 003284,0.00002213,-0.00005138,0.00004892,0.00001566,-0.00001784,-0.000
 00719,0.00000044,0.00000070,-0.00000829,0.00001304,0.00001457,0.000002
 22,-0.00000052,0.00000001,0.00001441,-0.00000072,0.00000388,-0.0000032
 6,-0.00000967,-0.00001818,0.00022199,0.00005950,0.00012640,-0.00012308
 ,-0.00005380,-0.00015019,0.00000078,0.00000493,-0.00000650,0.00000510,
 0.00003953,0.00011277,-0.00016157,0.00009321,-0.00011283,-0.00005650,-
 0.00002233,-0.00004107,0.00001034,-0.00001821,-0.00002987,0.00001513,0
 .00000469,0.00000058,0.00001217,-0.00000401,-0.00002043,0.00050525,-0.
 00047860,0.00008216,-0.00011224,-0.00001123,-0.00018105,0.00031851,-0.
 00020205,-0.00011263,0.00047250,0.00006842,-0.00012316,0.00076706,-0.0
 0080263,0.00013455,-0.00017204,-0.00011290,-0.00049818,-0.00003925,-0.
 00005833,0.00009749,0.00009924,0.00009894,0.00016617,-0.13060251,0.122
 99993,-0.01144345,0.00536736,-0.00908064,0.00019595,0.13888352,-0.0000
 2640,-0.00002485,0.00001294,0.00001325,0.00000207,-0.00000559,-0.00002
 263,0.00000159,-0.00000483,-0.00000344,0.00002523,0.00001916,-0.000001
 27,-0.00000101,0.00000270,0.00001748,-0.00004288,-0.00003391,0.0000076
 2,0.00002721,-0.00000578,-0.00000157,-0.00000174,0.00000240,-0.0000077
 7,-0.00000390,0.00001420,0.00000954,0.00002175,0.00002011,0.00009768,-
 0.00018752,-0.00013442,-0.00012066,0.00020057,0.00015633,0.00024779,0.
 00008252,-0.00031002,-0.00019390,0.00002544,-0.00011507,0.00004925,0.0
 0000937,0.00010296,0.00003022,0.00001340,-0.00004566,-0.00046709,0.000
 57863,0.00135835,0.01029420,-0.01595072,0.00309552,-0.00015707,0.00022
 196,-0.00046806,-0.00011703,-0.00009016,0.00000164,0.00002705,-0.00016
 589,0.00013648,0.00051482,-0.00180000,0.00067692,-0.00001064,-0.000812
 43,0.00025807,-0.00000858,-0.00019843,0.00024885,-0.00009170,0.0002306
 5,-0.00025811,0.00110512,-0.00136063,0.00061195,-0.00087732,-0.0035333
 8,-0.00005589,0.00000466,0.00000373,0.00000415,-0.00000006,0.00000370,
 -0.00000038,0.00000078,0.00000056,-0.00000324,0.00002040,0.00001472,0.
 00000948,0.00002405,0.00000002,0.00000074,-0.00000216,-0.00000266,0.00
 000126,0.00000676,-0.00000938,-0.00000152,-0.00000364,-0.00000008,-0.0
 0000053,0.00000027,-0.00000077,0.00000287,-0.00000100,-0.00000146,-0.0
 0000412,-0.00002132,0.00002765,-0.00002253,-0.00000414,0.00001004,-0.0
 0000009,0.00000075,-0.00000266,0.00000004,0.00000104,0.00000418,-0.000
 00152,-0.00000019,0.00000056,0.00000185,-0.00000138,-0.00000213,-0.000
 00251,-0.00000263,-0.00000030,-0.00000013,0.00011682,-0.00001453,0.000
 00025,-0.00003591,-0.00002399,0.00002334,0.00003103,-0.00003367,0.0000
 5880,0.00002661,0.00001417,-0.00018384,0.00006499,0.00005018,-0.000023
 15,-0.00000211,-0.00003979,0.00000946,0.00001005,0.00000090,0.00000238
 ,-0.00000566,-0.00000267,0.00000154,0.00000042,0.00000706,0.00000772,-
 0.00147994,-0.00182528,-0.00431703,-0.00021032,0.00047784,-0.00007295,
 0.00015613,0.00013979,0.00008339,0.00098459,-0.00088186,-0.00009187,0.
 00119453,0.00052498,0.00093916,-0.00067703,0.00010749,-0.00037040,-0.0
 0003893,-0.00019243,-0.00003462,-0.00018477,0.00033747,-0.00000770,0.1
 2198682,-0.22457449,0.01628142,0.00872662,-0.01167510,-0.00008679,-0.1
 3480368,0.25131559,0.00000868,-0.00002846,0.00002501,-0.00002557,0.000
 00936,-0.00000882,0.00000942,0.00000239,-0.00000170,-0.00000874,-0.000
 00638,-0.00000504,0.00000029,-0.00000005,0.00000058,0.00001555,0.00001
 386,0.00001312,-0.00001751,0.00000820,0.00000940,-0.00000220,-0.000000
 96,0.00000097,0.00000008,-0.00000771,0.00000742,-0.00000254,-0.0000033
 2,-0.00000225,-0.00002371,-0.00021876,-0.00005553,-0.00015878,0.000240
 53,0.00008801,0.00019063,-0.00011417,-0.00032717,-0.00015776,-0.000128
 78,0.00020328,0.00003976,-0.00000857,0.00008485,0.00000104,0.00003784,
 0.00002187,0.00073711,-0.00072572,0.00141592,0.01554097,-0.02156509,0.
 00201306,-0.00029119,0.00038445,-0.00067925,0.00029668,0.00018572,-0.0
 0016347,0.00001430,-0.00018064,-0.00009770,0.00006827,0.00113558,-0.00
 011581,0.00012954,-0.00011189,0.00003690,0.00002467,0.00012236,-0.0000
 8099,-0.00001168,-0.00001510,-0.00004585,-0.00062389,0.00070712,0.0001
 2914,-0.00036614,0.00013026,-0.00017662,-0.00001963,-0.00002321,0.0000
 1868,0.00000035,0.00000392,-0.00000543,0.00000388,0.00000361,0.0000014
 4,0.00002619,0.00004744,0.00001950,0.00003177,0.00001118,-0.00000103,-
 0.00000213,-0.00000897,-0.00000097,0.00001879,-0.00000099,-0.00001996,
 -0.00000369,-0.00000007,0.00000101,0.00000010,-0.00000186,-0.00000160,
 -0.00000067,-0.00000492,-0.00000145,-0.00000397,0.00001391,0.00000538,
 -0.00002143,-0.00001881,0.00001095,0.00000314,0.00000148,0.00000013,-0
 .00001923,-0.00001924,0.00000684,-0.00000038,-0.00000231,-0.00000680,-
 0.00000140,0.00000431,-0.00000222,0.00000428,0.00000137,0.00000235,-0.
 00003856,0.00007541,-0.00007495,0.00001403,-0.00002508,0.00000855,0.00
 001253,-0.00002169,0.00005284,0.00005076,-0.00035249,-0.00003608,-0.00
 007098,-0.00005816,0.00002002,-0.00000014,-0.00001318,-0.00000318,0.00
 000116,0.00000299,-0.00001159,-0.00000405,0.00000173,0.00000234,-0.000
 00505,-0.00000236,0.00000576,-0.00120580,-0.00266932,-0.00440312,-0.00
 020491,-0.00017532,0.00019841,-0.00000413,0.00018827,-0.00012453,0.000
 80801,-0.00151708,0.00031402,0.00126812,0.00045725,0.00097255,-0.00047
 493,0.00017640,-0.00006906,-0.00015962,0.00008663,-0.00002939,0.000202
 67,0.00027778,-0.00003738,-0.01220195,0.01732276,-0.04700415,-0.015837
 73,0.02030166,-0.00101814,0.01318202,-0.01684290,0.05060314,0.00005249
 ,-0.00000747,0.00006787,-0.00000725,0.00000727,-0.00001615,0.00000134,
 0.00000231,-0.00000366,0.00001086,0.00000010,0.00000681,0.00000314,-0.
 00000465,0.00000059,-0.00006228,-0.00003478,-0.00006123,0.00004478,0.0
 0000726,-0.00003601,-0.00000076,-0.00000038,0.00000079,-0.00000246,-0.
 00000346,0.00000275,0.00003041,0.00003289,0.00002274,0.00051486,-0.000
 46131,-0.00019104,0.00035285,0.00071525,0.00024528,-0.00056615,-0.0000
 6899,0.00300977,-0.00034123,0.00009652,-0.00013029,-0.00001578,0.00005
 643,0.00006454,0.00003304,-0.00003913,-0.00008238,-0.00075501,-0.00072
 303,0.00004588,-0.00328047,0.00008613,-0.00036392,-0.00001379,-0.00006
 800,0.00002625,-0.00015797,-0.00017504,0.00000868,0.00012096,0.0001324
 3,-0.00001131,-0.00020244,-0.00030603,-0.00007338,-0.00026016,0.000221
 96,-0.00017870,0.00008237,-0.00003772,-0.00024955,0.00019158,-0.000073
 43,0.00015558,0.00005155,0.00016852,0.00008418,-0.00005473,0.00052923,
 0.00010590,0.00000303,0.00000059,-0.00000770,0.00000198,-0.00000119,0.
 00000007,0.00000164,0.00000893,0.00000169,-0.00000670,0.00004193,-0.00
 007663,-0.00004635,0.00006080,0.00000742,-0.00000073,-0.00000827,-0.00
 000031,0.00003461,0.00000324,-0.00002110,-0.00000515,-0.00000364,-0.00
 000324,0.00000061,-0.00000357,-0.00000064,-0.00000078,0.00000267,0.000
 00405,0.00002540,-0.00002300,0.00002375,-0.00003155,-0.00003172,0.0000
 2694,0.00000596,0.00000364,-0.00000519,0.00001291,-0.00003675,0.000005
 34,-0.00000970,-0.00000527,-0.00000212,0.00000318,-0.00000599,-0.00000
 368,-0.00000930,0.00001739,0.00000858,-0.00033196,-0.00001891,-0.00001
 720,0.00016116,0.00004369,0.00008548,-0.00002180,0.00003670,-0.0000564
 1,0.00000788,0.00002068,-0.00000272,0.00007080,-0.00004241,0.00006899,
 0.00002452,0.00002752,0.00002149,-0.00001309,0.00000791,0.00002616,0.0
 0000262,-0.00000062,-0.00000920,-0.00000348,0.00000065,0.00000752,0.00
 063019,0.00086870,0.00040870,-0.00009150,-0.00010391,-0.00011509,0.000
 36808,-0.00012173,0.00014908,0.00021586,-0.00005621,-0.00005047,0.0008
 4717,-0.00094508,-0.00159381,0.00025845,0.00008065,0.00020764,0.000168
 37,0.00022241,0.00009730,-0.00023041,-0.00020266,0.00002675,-0.2902940
 5,-0.06840137,-0.03172507,-0.00700863,-0.00092650,-0.00156208,-0.01458
 989,-0.00618941,-0.00073476,0.31408089,0.00003855,-0.00002011,-0.00000
 711,0.00001428,-0.00001459,-0.00001148,0.00000823,-0.00000316,-0.00000
 973,0.00001891,-0.00000590,0.00000256,0.00000368,0.00000162,-0.0000051
 0,-0.00001048,-0.00000069,-0.00003036,0.00005894,-0.00007044,0.0000221
 6,0.00000201,0.00000116,-0.00000312,-0.00000157,0.00000156,-0.00000817
 ,0.00000872,-0.00000160,0.00000676,0.00004801,0.00000373,-0.00012695,0
 .00014190,0.00008639,-0.00002728,0.00011445,-0.00007170,0.00054631,-0.
 00017087,-0.00001047,-0.00004990,-0.00005867,0.00002642,0.00003234,-0.
 00000617,-0.00001961,-0.00002731,0.00001574,0.00002659,0.00035045,-0.0
 1743827,-0.00611310,-0.00046506,0.00003742,-0.00001069,0.00003350,-0.0
 0037964,0.00005481,0.00051472,-0.00014830,-0.00017042,-0.00001991,0.00
 039879,0.00027058,0.00017382,0.00012338,-0.00008019,0.00006810,-0.0000
 6686,0.00002257,0.00009957,-0.00006320,0.00001701,-0.00000499,-0.00007
 439,-0.00013152,-0.00014224,0.00020759,-0.00104968,-0.00002092,0.00000
 583,0.00001312,0.00000373,-0.00000156,-0.00000135,0.00000252,-0.000003
 93,-0.00000717,-0.00000144,-0.00000802,-0.00001899,-0.00008131,0.00004
 284,-0.00006905,-0.00001013,0.00000432,0.00000895,0.00000100,-0.000047
 45,0.00001312,0.00001263,0.00001116,0.00000204,0.00000154,0.00000085,0
 .00000653,0.00000223,-0.00000364,0.00000182,-0.00000127,-0.00001452,0.
 00000905,-0.00002254,0.00004030,0.00002031,-0.00001581,-0.00000517,0.0
 0000178,-0.00000119,-0.00001953,-0.00000471,0.00000571,0.00000375,0.00
 000015,-0.00000542,0.00000015,-0.00000960,0.00000559,0.00000249,-0.000
 01892,-0.00001030,0.00022692,-0.00005453,-0.00005255,-0.00007931,0.000
 02784,-0.00001013,0.00002376,-0.00004924,0.00007022,-0.00001013,0.0000
 0622,0.00000101,-0.00007476,0.00002496,-0.00003616,-0.00002624,-0.0000
 1915,-0.00003039,0.00000825,-0.00001154,-0.00000659,-0.00000054,0.0000
 0361,0.00000580,0.00000159,-0.00000164,-0.00000653,-0.00119742,0.00102
 921,0.00043488,-0.00014778,-0.00019372,0.00011858,0.00040010,-0.000323
 51,-0.00047878,0.00020414,0.00022491,0.00020359,0.00034092,-0.00222014
 ,-0.00359599,-0.00015539,0.00020116,-0.00004818,0.00038637,0.00013378,
 -0.00001732,-0.00130477,0.00002143,-0.00039612,-0.06746098,-0.06628772
 ,-0.00905290,-0.01471764,-0.00434486,-0.00333909,0.02512557,0.00897577
 ,0.00291776,0.07562728,0.07017155,0.00009393,-0.00007056,-0.00005467,-
 0.00009557,-0.00000126,-0.00001089,0.00006363,0.00001308,0.00001681,-0
 .00003231,-0.00005598,-0.00007350,-0.00000353,0.00000245,0.00000215,0.
 00007258,0.00015375,0.00019146,-0.00009132,-0.00003110,0.00002776,-0.0
 0000761,-0.00000240,0.00000185,0.00000789,-0.00001260,0.00000242,-0.00
 004017,-0.00007300,-0.00008221,0.00044313,-0.00074390,-0.00074569,0.00
 040785,0.00072192,0.00031965,0.00070383,-0.00011005,-0.00118168,-0.000
 21224,-0.00020419,0.00008531,-0.00005442,0.00006692,0.00009177,0.00002
 254,0.00000290,0.00000872,-0.00115705,-0.00011937,0.00074676,-0.025301
 03,-0.00618683,-0.00282438,0.00000393,-0.00004182,0.00003347,0.0004895
 7,0.00031476,-0.00044757,0.00003657,0.00002499,-0.00000275,-0.00005593
 ,-0.00006125,-0.00002266,0.00000357,-0.00001211,-0.00008035,-0.0001233
 8,0.00009220,-0.00010354,0.00017096,-0.00004402,0.00000166,0.00002859,
 0.00000119,-0.00000850,0.00000858,0.00015189,0.00002854,0.00000089,-0.
 00000342,0.00000884,0.00000789,-0.00000114,-0.00000424,0.00000293,0.00
 000126,-0.00000415,-0.00000455,0.00013697,0.00008956,-0.00009612,0.000
 09536,-0.00000973,-0.00000305,-0.00001080,-0.00000553,0.00005650,-0.00
 001335,-0.00004652,-0.00000616,0.00000107,0.00000296,-0.00000008,-0.00
 000644,-0.00001140,0.00000374,-0.00000002,-0.00000111,0.00001104,-0.00
 000534,-0.00000215,-0.00006189,-0.00006280,0.00003485,0.00000798,0.000
 00165,0.00000012,-0.00002757,-0.00005336,0.00002214,-0.00000407,-0.000
 00577,-0.00002336,-0.00001198,0.00000745,0.00000487,0.00001669,0.00000
 062,0.00000377,-0.00024959,-0.00002019,-0.00001135,0.00012281,0.000028
 17,0.00006298,-0.00000513,0.00000953,-0.00001118,0.00002833,0.00000919
 ,-0.00000453,0.00004002,-0.00004303,0.00003800,-0.00000340,0.00000214,
 0.00001040,-0.00001635,0.00000909,-0.00000119,0.00001364,0.00000838,-0
 .00000806,0.00000252,-0.00000627,0.00000316,-0.00051535,0.00135398,0.0
 0091651,0.00020520,-0.00005815,-0.00003993,0.00040573,-0.00033938,0.00
 026159,0.00003506,0.00030802,-0.00007419,0.00051939,-0.00295667,-0.004
 41284,0.00027930,0.00017630,-0.00007755,0.00000894,-0.00022388,0.00017
 145,-0.00158594,-0.00077665,0.00000410,-0.03003582,-0.00885397,-0.0488
 4160,0.02503637,0.00561437,0.00405602,-0.00192103,-0.00064125,-0.00168
 218,0.03236050,0.01254269,0.05366154\\-0.00000226,-0.00000394,0.000001
 75,-0.00000603,-0.00000575,0.00000235,-0.00000411,-0.00000690,-0.00000
 031,-0.00000166,-0.00000539,-0.00000448,-0.00000156,-0.00000416,-0.000
 00689,-0.00000098,-0.00000149,-0.00000429,-0.00000111,-0.00000336,-0.0
 0000261,-0.00000627,-0.00000877,-0.00000038,-0.00000722,-0.00000870,0.
 00000576,0.00000426,0.00000024,-0.00001053,-0.00000307,-0.00000241,0.0
 0000432,-0.00000595,-0.00000528,0.00000888,-0.00000193,0.00000072,0.00
 000465,-0.00000550,-0.00000284,0.00001130,-0.00000528,-0.00000405,0.00
 001545,-0.00000653,-0.00000606,0.00001050,-0.00000092,-0.00000076,0.00
 000706,0.00000082,0.00000517,0.00001120,-0.00000195,0.00000010,0.00000
 781,-0.00000085,0.00000539,-0.00000527,0.00000241,0.00000243,0.0000014
 8,0.00000490,0.00000664,0.00000112,0.00000168,0.00000583,-0.00000256,0
 .00000455,-0.00000083,-0.00000515,-0.00000103,-0.00000263,0.00000146,0
 .00000212,0.00000542,0.00000603,0.00000496,0.00000726,-0.00000115,0.00
 000466,0.00000221,-0.00001245,0.00000113,0.00000023,-0.00001053,0.0000
 0521,0.00000398,-0.00001311,0.00000611,-0.00000038,-0.00001280,-0.0000
 0152,-0.00000886,-0.00000623,-0.00000074,-0.00000311,-0.00001132,0.000
 00249,-0.00000614,-0.00001306,-0.00000290,-0.00000335,-0.00001367,-0.0
 0000302,-0.00000701,-0.00001060,0.00000337,-0.00000120,-0.00001563,0.0
 0000098,0.00000392,0.00000350,0.00000022,-0.00000512,-0.00001855,-0.00
 000072,-0.00000886,-0.00001896,0.00000368,0.00000324,-0.00001413,0.000
 00619,0.00000241,-0.00001694,0.00000434,0.00000380,-0.00001383,0.00000
 732,0.00000514,-0.00000979,-0.00000123,-0.00000275,0.00000156,-0.00000
 420,-0.00000296,0.00000438,0.00000310,0.00000320,-0.00000249,0.0000061
 8,0.00000913,0.00000200,0.00000458,0.00000479,-0.00000633,-0.00000536,
 -0.00000655,-0.00000150,-0.00000480,-0.00000733,0.00000212,-0.00000393
 ,-0.00000739,-0.00000264,-0.00000431,-0.00000809,-0.00000288,-0.000000
 57,0.00000398,0.00001356,0.00000117,0.00000725,0.00001589,-0.00000016,
 0.00000342,0.00001047,-0.00000242,0.00000261,0.00001608,-0.00000027,0.
 00000481,0.00001645,-0.00000010,0.00000528,0.00001501,0.00000111,0.000
 00796,0.00001832,-0.00000277,0.00000230,0.00001823,0.00000386,0.000006
 44,0.00000845,0.00000479,0.00001107,0.00001103,0.00000240,0.00000872,0
 .00000750,0.00000462,0.00000737,0.00000538\\\@


 THOSE WHO ASPIRE NOT TO GUESS AND DIVINE,
 BUT TO DISCOVER AND KNOW, WHO PROPOSE NOT TO DEVISE 
 MIMIC AND FABULOUS WORLDS OF THEIR OWN, BUT TO 
 EXAMINE AND DISSECT THE NATURE OF THIS VERY WORLD 
 ITSELF, MUST GO TO THE FACTS THEMSELVES FOR EVERYTHING.

                               -- FRANCIS BACON, 1620
 Job cpu time:       2 days 15 hours 13 minutes 25.4 seconds.
 File lengths (MBytes):  RWF=   7502 Int=      0 D2E=      0 Chk=     25 Scr=      1
 Normal termination of Gaussian 09 at Fri Feb  2 15:42:57 2018.
